ITEM: TIMESTEP
3264
ITEM: NUMBER OF ATOMS
4128
ITEM: BOX BOUNDS pp pp pp
1.9549499589175842e-01 1.4538151200410826e+02
2.4464594500338045e-02 2.9090936405499658e+01
1.7473881292078806e-03 1.1418252611870789e+01
ITEM: ATOMS id type x y z
1 1 2.67487 1.67932 2.71076
2 1 1.01248 0.601875 1.2837
4 1 4.34751 2.78646 1.2837
5 1 5.46019 1.1012 2.71076
6 1 7.14281 2.21826 1.2837
7 1 8.26278 0.539429 2.71076
9 1 11.628 2.77192 2.71076
10 1 9.94554 1.65579 1.2837
11 1 12.7497 1.0939 1.2837
12 1 14.4317 2.20979 2.71076
13 1 15.5532 0.531537 1.2837
14 1 18.9174 2.76338 1.2837
15 1 17.2353 1.64746 2.71076
17 1 21.7209 2.20106 1.2837
18 1 20.0388 1.08513 2.71076
19 1 24.5244 1.63873 1.2837
20 1 22.8423 0.522804 2.71076
22 1 26.2065 2.75466 2.71076
23 1 27.328 1.07641 1.2837
24 1 29.0101 2.19234 2.71076
25 1 30.1315 0.514089 1.2837
27 1 31.8136 1.63002 2.71076
28 1 33.4957 2.74595 1.2837
29 1 34.6171 1.0677 2.71076
30 1 36.2993 2.18363 1.2837
31 1 37.4207 0.505386 2.71076
32 1 40.7849 2.73726 2.71076
33 1 39.1028 1.62132 1.2837
34 1 43.5885 2.17496 2.71076
35 1 41.9063 1.05901 1.2837
36 1 46.3919 1.61262 2.71076
37 1 44.7098 0.496671 1.2837
38 1 48.0741 2.72858 1.2837
39 1 49.1952 1.05014 2.71076
40 1 50.8772 2.16606 1.2837
41 1 53.6801 1.60325 1.2837
42 1 51.9984 0.487491 2.71076
43 1 55.3617 2.71894 2.71076
44 1 56.4833 1.04045 1.2837
46 1 58.1644 2.15549 2.71076
47 1 59.2893 0.479371 1.2837
48 1 62.6546 2.70656 1.2837
49 1 60.9721 1.59387 2.71076
51 1 65.4831 2.15845 1.2837
52 1 63.7901 1.03788 2.71076
53 1 66.5843 0.464975 2.71076
54 1 68.2518 1.55656 1.2837
56 1 69.7904 2.78676 2.71076
2001 1 70.9267 1.07036 1.2837
2002 1 72.0992 2.72474 2.71076
2003 1 73.6147 1.49552 1.2837
2004 1 75.2959 0.456433 2.71076
2005 1 76.3829 2.14716 1.2837
2006 1 78.0663 1.02518 2.71076
2007 1 79.1777 2.70586 1.2837
2008 1 80.8602 1.5847 2.71076
2009 1 83.6615 2.14365 2.71076
2010 1 85.3441 1.02539 1.2837
2011 1 82.5422 0.465359 1.2837
2012 1 86.465 2.70248 2.71076
2013 1 88.1475 1.58457 1.2837
2014 1 90.9514 2.14355 1.2837
2015 1 89.8298 0.466746 2.71076
2016 1 93.755 2.70279 1.2837
2017 1 92.6334 1.02588 2.71076
2018 1 95.4369 1.58517 2.71076
2019 1 97.1189 0.467536 1.2837
2020 1 98.2403 2.1446 2.71076
2021 1 101.044 2.70408 2.71076
2022 1 99.9222 1.02697 1.2837
2023 1 102.725 1.58643 1.2837
2024 1 107.211 1.02825 2.71076
2025 1 105.529 2.1459 1.2837
2026 1 104.407 0.468785 2.71076
2027 1 110.014 1.5877 2.71076
2028 1 108.332 2.70535 1.2837
2029 1 112.817 2.14715 2.71076
2030 1 111.696 0.470046 1.2837
2031 1 115.62 2.7066 2.71076
2032 1 114.499 1.0295 1.2837
2033 1 117.302 1.58895 1.2837
2034 1 120.106 2.1484 1.2837
2035 1 118.984 0.471296 2.71076
2036 1 121.788 1.03074 2.71076
2037 1 122.909 2.70785 1.2837
2038 1 124.591 1.59019 2.71076
2039 1 126.273 0.472531 1.2837
2040 1 127.394 2.14971 2.71076
2041 1 129.076 1.03214 1.2837
2042 1 130.198 2.70902 2.71076
2043 1 131.88 1.59138 1.2837
2044 1 134.685 2.14876 1.2837
2045 1 133.562 0.473872 2.71076
2046 1 136.371 1.02765 2.71076
2047 1 137.476 2.71541 1.2837
2048 1 139.15 1.59187 2.71076
2049 1 142.032 2.30964 2.71076
2050 1 140.835 0.539064 1.2837
2051 1 144.979 2.29957 2.71076
2052 1 143.494 1.02584 1.2837
3 1 1.51877 3.32627 1.2837
57 1 3.20797 4.45232 2.71076
58 1 0.396544 4.9392 2.71076
59 1 2.0895 6.12686 1.2837
60 1 6.0244 3.89951 2.71076
61 1 4.89446 5.57228 1.2837
8 1 8.82493 3.33445 2.71076
62 1 7.70453 5.01379 1.2837
63 1 9.38585 6.12904 2.71076
65 1 10.507 4.45041 1.2837
66 1 12.189 5.56633 2.71076
67 1 13.3102 3.88795 1.2837
68 1 14.9924 5.00392 2.71076
16 1 16.1138 3.32571 1.2837
69 1 17.796 4.44163 2.71076
70 1 16.6745 6.11987 1.2837
71 1 20.5995 3.87931 2.71076
72 1 19.4781 5.55756 1.2837
73 1 22.2816 4.99524 1.2837
21 1 23.403 3.31699 2.71076
74 1 25.0851 4.43292 1.2837
75 1 23.9637 6.11117 2.71076
76 1 27.8887 3.87059 1.2837
77 1 26.7673 5.54885 2.71076
26 1 30.6922 3.30827 1.2837
78 1 29.5708 4.98652 2.71076
79 1 31.2529 6.10245 1.2837
80 1 32.3743 4.4242 2.71076
81 1 34.0564 5.54013 1.2837
82 1 37.9814 3.29956 2.71076
83 1 35.1778 3.86188 2.71076
84 1 36.8599 4.9778 1.2837
85 1 39.6635 4.41549 1.2837
86 1 38.5421 6.09373 2.71076
87 1 42.4671 3.8532 1.2837
88 1 44.1492 4.96914 2.71076
89 1 41.3456 5.53142 2.71076
90 1 45.2706 3.29092 1.2837
91 1 46.9528 4.4069 2.71076
92 1 45.8314 6.08509 1.2837
93 1 49.7562 3.84458 2.71076
94 1 48.635 5.5229 1.2837
95 1 52.5592 3.282 2.71076
96 1 51.4384 4.96063 1.2837
97 1 53.1207 6.07672 2.71076
98 1 54.2412 4.39797 1.2837
99 1 55.9233 5.51392 2.71076
100 1 59.8451 3.2694 1.2837
101 1 57.0431 3.8344 1.2837
102 1 58.7245 4.94948 2.71076
103 1 61.5243 4.38206 2.71076
104 1 60.4054 6.06454 1.2837
105 1 63.1999 5.49469 1.2837
106 1 64.3339 3.8192 2.71076
107 1 66.0061 4.93312 1.2837
108 1 67.1796 3.29691 2.71076
109 1 67.6363 6.07845 2.71076
110 1 68.9023 4.51635 1.2837
2053 1 71.0872 5.37293 2.71076
2054 1 74.6869 3.25374 2.71076
2055 1 72.9952 4.43699 1.2837
2056 1 74.1094 6.06163 2.71076
2057 1 75.7987 4.93815 1.2837
2058 1 77.4917 3.82579 2.71076
2059 1 78.6119 5.49994 1.2837
2060 1 81.979 3.26267 1.2837
2061 1 80.2962 4.38225 2.71076
2062 1 81.4157 6.05849 1.2837
2063 1 84.7823 3.82067 1.2837
2064 1 83.0994 4.93938 2.71076
2065 1 85.9051 5.49656 2.71076
2066 1 87.5871 4.37886 1.2837
2067 1 89.2693 3.26121 2.71076
2068 1 88.7095 6.05537 2.71076
2069 1 90.3912 4.9379 1.2837
2070 1 92.0731 3.82037 2.71076
2071 1 93.1946 5.49741 1.2837
2072 1 94.8765 4.37983 2.71076
2073 1 96.5584 3.26223 1.2837
2074 1 97.6797 4.93936 2.71076
2075 1 95.9977 6.05699 1.2837
2076 1 99.3616 3.82172 1.2837
2077 1 100.483 5.49886 2.71076
2078 1 103.847 3.26355 2.71076
2079 1 103.286 6.05832 2.71076
2080 1 102.165 4.3812 1.2837
2081 1 106.65 3.82301 2.71076
2082 1 104.968 4.94066 1.2837
2083 1 109.453 4.38246 2.71076
2084 1 107.771 5.50011 1.2837
2085 1 110.575 6.05956 1.2837
2086 1 111.135 3.26481 1.2837
2087 1 112.257 4.94191 2.71076
2088 1 113.938 3.82425 1.2837
2089 1 115.06 5.50136 2.71076
2090 1 116.742 4.3837 1.2837
2091 1 118.424 3.26605 2.71076
2092 1 117.863 6.06081 2.71076
2093 1 119.545 4.94316 1.2837
2094 1 121.227 3.8255 2.71076
2095 1 122.348 5.50261 1.2837
2096 1 125.712 3.26733 1.2837
2097 1 124.03 4.38497 2.71076
2098 1 125.152 6.06204 1.2837
2099 1 128.516 3.8267 1.2837
2100 1 126.834 4.94438 2.71076
2101 1 129.637 5.50373 2.71076
2102 1 132.439 6.06401 2.71076
2103 1 131.319 4.38586 1.2837
2104 1 133.002 3.26766 2.71076
2105 1 135.8 3.83107 2.71076
2106 1 134.12 4.94705 1.2837
2107 1 138.603 4.40129 2.71076
2108 1 136.924 5.50782 1.2837
2109 1 140.234 3.25803 1.2837
2110 1 141.491 4.8335 2.71076
2111 1 139.77 6.04755 1.2837
2112 1 143.669 3.99145 1.2837
111 1 2.67487 8.94594 1.2837
112 1 1.01248 7.86849 2.71076
113 1 3.77489 7.25064 2.71076
114 1 5.46019 8.36782 1.2837
64 1 6.57928 6.68931 2.71076
115 1 8.26278 7.80605 1.2837
116 1 7.14281 9.48488 2.71076
117 1 11.0677 7.2447 1.2837
118 1 9.94554 8.92241 2.71076
119 1 12.7497 8.36052 2.71076
120 1 13.8711 6.68224 1.2837
121 1 15.5532 7.79816 2.71076
122 1 14.4317 9.47641 1.2837
123 1 18.3567 7.23581 2.71076
124 1 17.2353 8.91408 1.2837
125 1 21.1602 6.67349 2.71076
126 1 20.0388 8.35174 1.2837
127 1 21.7209 9.46767 2.71076
128 1 22.8423 7.78942 1.2837
129 1 24.5244 8.90535 2.71076
130 1 28.4494 6.66478 1.2837
131 1 25.6458 7.2271 1.2837
132 1 27.328 8.34303 2.71076
133 1 30.1315 7.78071 2.71076
134 1 29.0101 9.45896 1.2837
135 1 32.935 7.21838 2.71076
136 1 31.8136 8.89664 1.2837
137 1 34.6171 8.33431 1.2837
138 1 35.7385 6.65605 2.71076
139 1 37.4206 7.77198 1.2837
140 1 36.2992 9.45024 2.71076
141 1 40.2242 7.20965 1.2837
142 1 39.1027 8.8879 2.71076
143 1 43.0277 6.64734 1.2837
144 1 41.9063 8.32557 2.71076
145 1 43.5884 9.44148 1.2837
146 1 47.5135 7.20105 2.71076
147 1 44.7099 7.76326 2.71076
148 1 46.392 8.87918 1.2837
149 1 50.3173 6.63894 2.71076
150 1 49.1957 8.31701 1.2837
151 1 51.9996 7.75501 1.2837
152 1 53.6821 8.87111 2.71076
153 1 50.878 9.43297 2.71076
154 1 54.8032 7.19285 1.2837
155 1 56.4858 8.30906 2.71076
156 1 57.6056 6.62985 1.2837
157 1 59.2879 7.74615 2.71076
158 1 58.1685 9.4256 1.2837
159 1 62.0851 7.18115 2.71076
160 1 60.9701 8.86378 1.2837
161 1 64.8677 6.61085 2.71076
162 1 63.7643 8.30146 1.2837
163 1 65.4479 9.42172 2.71076
164 1 66.535 7.72992 1.2837
165 1 68.2165 8.76734 2.71076
166 1 69.4422 7.02798 1.2837
2113 1 70.9043 8.33683 2.71076
2114 1 72.3916 7.09036 1.2837
2115 1 73.5793 8.81783 2.71076
2116 1 75.2467 7.7249 1.2837
2117 1 76.9266 6.61265 2.71076
2118 1 76.3478 9.41719 2.71076
2119 1 78.0406 8.29489 1.2837
2120 1 79.7298 7.17699 2.71076
2121 1 80.8582 8.84805 1.2837
2122 1 84.223 6.61433 1.2837
2123 1 82.5408 7.73181 2.71076
2124 1 83.6656 9.40678 1.2837
2125 1 85.3466 8.29002 2.71076
2126 1 87.0279 7.17277 1.2837
2127 1 88.1495 8.84994 2.71076
2128 1 91.5128 6.61495 2.71076
2129 1 90.9521 9.40988 2.71076
2130 1 89.8311 7.73246 1.2837
2131 1 94.3158 7.17462 2.71076
2132 1 92.6339 8.29225 1.2837
2133 1 97.1189 7.73418 2.71076
2134 1 95.437 8.85185 1.2837
2135 1 98.8009 6.61652 1.2837
2136 1 99.9221 8.29365 2.71076
2137 1 98.2402 9.41132 1.2837
2138 1 101.604 7.17598 1.2837
2139 1 102.725 8.85309 2.71076
2140 1 106.089 6.61777 2.71076
2141 1 104.407 7.73543 1.2837
2142 1 105.529 9.41252 2.71076
2143 1 107.211 8.29487 1.2837
2144 1 108.893 7.17722 2.71076
2145 1 110.014 8.85432 1.2837
2146 1 113.378 6.61901 1.2837
2147 1 111.696 7.73666 2.71076
2148 1 112.817 9.41377 1.2837
2149 1 116.181 7.17846 1.2837
2150 1 114.499 8.29611 2.71076
2151 1 117.302 8.85557 2.71076
2152 1 118.984 7.73791 1.2837
2153 1 120.106 9.41501 2.71076
2154 1 120.666 6.62026 2.71076
2155 1 121.788 8.29736 1.2837
2156 1 123.47 7.1797 2.71076
2157 1 126.273 7.73915 2.71076
2158 1 124.591 8.85681 1.2837
2159 1 127.955 6.62147 1.2837
2160 1 129.076 8.29876 2.71076
2161 1 127.394 9.41633 1.2837
2162 1 130.758 7.18129 1.2837
2163 1 131.88 8.85799 2.71076
2164 1 135.243 6.62334 2.71076
2165 1 134.685 9.41538 2.71076
2166 1 133.562 7.74049 1.2837
2167 1 138.062 7.16905 2.71076
2168 1 136.371 8.29427 1.2837
2169 1 139.15 8.85849 1.2837
2170 1 140.835 7.80568 2.71076
2171 1 142.032 9.57626 1.2837
2172 1 142.366 6.57609 1.2837
2173 1 144.675 6.63927 1.2837
2174 1 143.494 8.29246 2.71076
2175 1 144.979 9.56619 1.2837
167 1 1.51877 10.5929 2.71076
168 1 0.396544 12.2058 1.2837
169 1 3.20797 11.7189 1.2837
170 1 4.34751 10.0531 2.71076
171 1 6.0244 11.1661 1.2837
172 1 4.89446 12.8389 2.71076
173 1 8.82493 10.6011 1.2837
174 1 7.70453 12.2804 2.71076
175 1 11.628 10.0385 1.2837
176 1 10.507 11.717 2.71076
177 1 12.189 12.8329 1.2837
178 1 13.3102 11.1546 2.71076
179 1 14.9924 12.2705 1.2837
180 1 18.9174 10.03 2.71076
181 1 16.1138 10.5923 2.71076
182 1 17.796 11.7083 1.2837
183 1 20.5995 11.1459 1.2837
184 1 19.4781 12.8242 2.71076
185 1 22.2816 12.2619 2.71076
186 1 23.403 10.5836 1.2837
187 1 25.0851 11.6995 2.71076
188 1 26.2065 10.0213 1.2837
189 1 27.8887 11.1372 2.71076
190 1 26.7673 12.8155 1.2837
191 1 30.6922 10.5749 2.71076
192 1 29.5708 12.2531 1.2837
193 1 33.4957 10.0126 2.71076
194 1 32.3743 11.6908 1.2837
195 1 34.0564 12.8068 2.71076
196 1 37.9814 10.5662 1.2837
197 1 35.1778 11.1285 1.2837
198 1 36.86 12.2444 2.71076
199 1 40.7849 10.0038 1.2837
200 1 39.6635 11.6821 2.71076
201 1 42.4669 11.1197 2.71076
202 1 44.149 12.2357 1.2837
203 1 41.3456 12.798 1.2837
204 1 45.2704 10.5574 2.71076
205 1 46.9525 11.6733 1.2837
206 1 48.0741 9.99507 2.71076
207 1 49.7561 11.1109 1.2837
208 1 48.6345 12.7891 2.71076
209 1 52.5602 10.5489 1.2837
210 1 51.4381 12.2267 2.71076
211 1 55.3648 9.9873 1.2837
212 1 54.2425 11.6648 2.71076
213 1 55.9247 12.7808 1.2837
214 1 59.8512 10.5429 2.71076
215 1 57.0476 11.1038 2.71076
216 1 58.7306 12.2208 1.2837
217 1 62.6527 9.98321 2.71076
218 1 61.5342 11.6608 1.2837
271 1 63.2186 12.7767 2.71076
219 1 64.3388 11.1014 1.2837
220 1 66.0318 12.2119 2.71076
221 1 67.1442 10.5266 1.2837
222 1 68.8365 11.7077 2.71076
223 1 69.7331 9.99411 1.2837
2176 1 70.7453 12.6397 1.2837
2177 1 72.0419 10.0504 1.2837
2178 1 72.9289 11.7789 2.71076
2179 1 74.6515 10.5572 1.2837
2180 1 75.8243 12.1926 2.71076
2181 1 77.4966 11.0769 1.2837
2182 1 78.6305 12.7512 2.71076
2183 1 79.1758 9.96251 2.71076
2184 1 81.9851 10.5224 2.71076
2185 1 80.306 11.6368 1.2837
2186 1 84.7868 11.0845 2.71076
2187 1 83.1056 12.2013 1.2837
2188 1 86.4681 9.96736 1.2837
2189 1 87.5884 11.6452 2.71076
2190 1 85.9065 12.7629 1.2837
2191 1 89.2702 10.5276 1.2837
2192 1 90.3909 12.205 2.71076
2193 1 93.755 9.96954 2.71076
2194 1 93.1941 12.7644 2.71076
2195 1 92.073 11.0873 1.2837
2196 1 94.8761 11.6467 1.2837
2197 1 96.5582 10.529 2.71076
2198 1 97.6795 12.2061 1.2837
2199 1 101.043 9.97075 1.2837
2200 1 99.3615 11.0884 2.71076
2201 1 100.483 12.7655 1.2837
2202 1 103.847 10.5302 1.2837
2203 1 102.165 11.6478 2.71076
2204 1 104.968 12.2073 2.71076
2205 1 106.65 11.0896 1.2837
2206 1 108.332 9.97197 2.71076
2207 1 107.771 12.7667 2.71076
2208 1 109.453 11.6491 1.2837
2209 1 111.135 10.5314 2.71076
2210 1 112.257 12.2085 1.2837
2211 1 115.62 9.97322 1.2837
2212 1 113.939 11.0909 2.71076
2213 1 116.742 11.6503 2.71076
2214 1 115.06 12.768 1.2837
2215 1 118.424 10.5327 1.2837
2216 1 119.545 12.2098 2.71076
2217 1 122.909 9.97447 2.71076
2218 1 122.348 12.7692 2.71076
2219 1 121.227 11.0921 1.2837
2220 1 125.712 10.5339 2.71076
2221 1 124.03 11.6516 1.2837
2222 1 128.516 11.0933 2.71076
2223 1 126.834 12.211 1.2837
2224 1 130.198 9.97564 1.2837
2225 1 129.637 12.7703 1.2837
2226 1 131.319 11.6525 2.71076
2227 1 133.002 10.5343 1.2837
2228 1 134.12 12.2137 2.71076
2229 1 135.8 11.0977 1.2837
2230 1 137.476 9.98202 2.71076
2231 1 136.924 12.7744 2.71076
2232 1 138.603 11.6679 1.2837
2233 1 140.234 10.5246 2.71076
2234 1 141.491 12.1001 1.2837
2235 1 143.669 11.2581 2.71076
224 1 2.0895 13.3935 2.71076
225 1 1.01248 15.1351 1.2837
227 1 3.77489 14.5173 1.2837
228 1 5.46019 15.6344 2.71076
229 1 9.38585 13.3957 1.2837
230 1 6.57928 13.9559 1.2837
231 1 8.26278 15.0727 2.71076
232 1 11.0677 14.5113 2.71076
233 1 12.7497 15.6271 1.2837
235 1 13.8711 13.9489 2.71076
236 1 15.5532 15.0648 1.2837
237 1 16.6745 13.3865 2.71076
238 1 18.3567 14.5024 1.2837
240 1 21.1602 13.9401 1.2837
241 1 20.0388 15.6184 2.71076
242 1 23.9637 13.3778 1.2837
243 1 22.8423 15.056 2.71076
244 1 24.5244 16.172 1.2837
245 1 28.4494 13.9314 2.71076
246 1 25.6458 14.4937 2.71076
247 1 27.328 15.6096 1.2837
248 1 31.2529 13.3691 2.71076
249 1 30.1315 15.0473 1.2837
250 1 32.935 14.485 1.2837
251 1 34.6171 15.6009 2.71076
252 1 31.8136 16.1633 2.71076
253 1 35.7386 13.9227 1.2837
254 1 37.4207 15.0386 2.71076
255 1 38.5421 13.3604 1.2837
256 1 40.2242 14.4763 2.71076
257 1 39.1028 16.1546 1.2837
258 1 43.0277 13.914 2.71076
259 1 41.9063 15.5922 1.2837
260 1 45.8311 13.3516 2.71076
261 1 44.7098 15.0299 1.2837
262 1 47.5132 14.4675 1.2837
312 1 46.3919 16.1459 2.71076
263 1 50.3165 13.9049 1.2837
264 1 49.1952 15.5834 2.71076
265 1 53.1201 13.3425 1.2837
266 1 51.9984 15.0207 2.71076
317 1 53.6801 16.1365 1.2837
267 1 54.8018 14.4582 2.71076
268 1 56.4833 15.5737 1.2837
269 1 57.6069 13.8969 2.71076
270 1 59.2893 15.0126 1.2837
272 1 60.4145 13.3382 2.71076
273 1 62.1006 14.4549 1.2837
325 1 60.9721 16.1271 2.71076
274 1 64.9041 13.8877 1.2837
275 1 63.7901 15.5711 2.71076
276 1 66.5843 14.9982 2.71076
277 1 67.7212 13.3333 1.2837
278 1 69.4387 14.3603 2.71076
330 1 68.2518 16.0898 1.2837
2236 1 70.9267 15.6036 1.2837
2237 1 72.3883 14.2921 2.71076
2238 1 74.1939 13.3397 1.2837
2239 1 73.6147 16.0288 1.2837
2240 1 75.2959 14.9897 2.71076
2241 1 76.9629 13.8689 1.2837
2242 1 78.0663 15.5584 2.71076
2243 1 81.4249 13.3181 2.71076
2244 1 79.7453 14.4364 1.2837
2245 1 80.8602 16.1179 2.71076
2246 1 84.2244 13.8806 2.71076
2247 1 82.5422 14.9986 1.2837
2248 1 85.3441 15.5586 1.2837
2249 1 87.0265 14.4407 2.71076
2250 1 88.1475 16.1178 1.2837
2251 1 88.7088 13.3228 1.2837
2252 1 91.512 13.8822 1.2837
2253 1 89.8298 15 2.71076
2254 1 92.6334 15.5591 2.71076
2255 1 94.3155 14.4414 1.2837
2256 1 95.9975 13.3237 2.71076
2257 1 97.1189 15.0008 1.2837
2258 1 95.4369 16.1184 2.71076
2259 1 98.8009 13.8831 2.71076
2260 1 99.9222 15.5602 1.2837
2261 1 103.286 13.3249 1.2837
2262 1 101.604 14.4426 2.71076
2263 1 102.725 16.1197 1.2837
2264 1 104.407 15.002 2.71076
2265 1 106.089 13.8844 1.2837
2266 1 107.211 15.5615 2.71076
2267 1 110.575 13.3262 2.71076
2268 1 108.893 14.4438 1.2837
2269 1 110.014 16.1209 2.71076
2270 1 113.378 13.8856 2.71076
2271 1 111.696 15.0033 1.2837
2272 1 116.181 14.4451 2.71076
2273 1 114.499 15.5627 1.2837
2274 1 117.863 13.3274 1.2837
2275 1 118.984 15.0045 2.71076
2276 1 117.302 16.1222 1.2837
2277 1 120.666 13.8869 1.2837
2278 1 121.788 15.564 2.71076
2279 1 125.152 13.3287 2.71076
2280 1 123.47 14.4463 1.2837
2281 1 126.273 15.0058 1.2837
2282 1 124.591 16.1234 2.71076
2283 1 127.955 13.8881 2.71076
2284 1 129.076 15.5654 1.2837
2285 1 132.439 13.3306 1.2837
2286 1 130.758 14.4479 2.71076
2287 1 131.88 16.1246 1.2837
2288 1 135.243 13.89 1.2837
2289 1 133.562 15.0071 2.71076
2290 1 136.371 15.5609 2.71076
2291 1 138.062 14.4357 1.2837
2292 1 139.77 13.3142 2.71076
2293 1 140.835 15.0723 1.2837
2294 1 139.15 16.1251 2.71076
2295 1 142.366 13.8427 2.71076
2296 1 144.675 13.9059 2.71076
2297 1 143.494 15.5591 1.2837
226 1 2.67487 16.2126 2.71076
279 1 1.51877 17.8595 1.2837
280 1 3.20797 18.9856 2.71076
282 1 4.34751 17.3197 1.2837
283 1 6.0244 18.4327 2.71076
284 1 7.14281 16.7515 1.2837
285 1 8.82493 17.8677 2.71076
234 1 9.94554 16.189 1.2837
287 1 11.628 17.3052 2.71076
288 1 10.507 18.9836 1.2837
289 1 14.4317 16.743 2.71076
290 1 13.3102 18.4212 1.2837
239 1 17.2353 16.1807 2.71076
292 1 18.9174 17.2966 1.2837
293 1 16.1138 17.8589 1.2837
294 1 17.796 18.9749 2.71076
295 1 21.7209 16.7343 1.2837
296 1 20.5995 18.4125 2.71076
297 1 23.403 17.8502 2.71076
298 1 25.0851 18.9662 1.2837
299 1 26.2065 17.2879 2.71076
300 1 27.8887 18.4038 1.2837
301 1 29.0101 16.7256 2.71076
302 1 30.6922 17.8415 1.2837
303 1 33.4957 17.2792 1.2837
304 1 32.3743 18.9574 2.71076
305 1 36.2993 16.7169 1.2837
306 1 37.9814 17.8328 2.71076
307 1 35.1778 18.3951 2.71076
308 1 40.7849 17.2705 2.71076
309 1 39.6635 18.9487 1.2837
310 1 43.5885 16.7082 2.71076
311 1 42.4671 18.3864 1.2837
313 1 45.2706 17.8242 1.2837
314 1 46.9528 18.9401 2.71076
315 1 48.0741 17.2618 1.2837
316 1 49.7562 18.3778 2.71076
318 1 50.8772 16.6993 1.2837
319 1 52.5592 17.8152 2.71076
320 1 55.3617 17.2522 2.71076
321 1 54.2412 18.9312 1.2837
322 1 58.1644 16.6887 2.71076
323 1 57.0431 18.3676 1.2837
324 1 59.8451 17.8026 1.2837
326 1 62.6546 17.2398 1.2837
327 1 61.5243 18.9153 2.71076
328 1 65.4831 16.6917 1.2837
329 1 64.3339 18.3524 2.71076
331 1 67.1796 17.8301 2.71076
332 1 68.9023 19.0496 1.2837
333 1 69.7904 17.32 2.71076
2298 1 72.0992 17.258 2.71076
2299 1 74.6869 17.787 2.71076
2300 1 72.9952 18.9702 1.2837
2301 1 76.3829 16.6804 1.2837
2302 1 77.4917 18.359 2.71076
2303 1 79.1777 17.2391 1.2837
2304 1 80.2962 18.9155 2.71076
2305 1 81.979 17.7959 1.2837
2306 1 83.6615 16.6769 2.71076
2307 1 84.7823 18.3539 1.2837
2308 1 86.465 17.2357 2.71076
2309 1 87.5871 18.9121 1.2837
2310 1 90.9514 16.6768 1.2837
2311 1 89.2693 17.7944 2.71076
2312 1 92.0731 18.3536 2.71076
2313 1 93.755 17.236 1.2837
2314 1 94.8765 18.9131 2.71076
2315 1 96.5584 17.7955 1.2837
2316 1 98.2403 16.6778 2.71076
2317 1 101.044 17.2373 2.71076
2318 1 99.3616 18.355 1.2837
2319 1 103.847 17.7968 2.71076
2320 1 102.165 18.9144 1.2837
2321 1 105.529 16.6791 1.2837
2322 1 106.65 18.3562 2.71076
2323 1 109.453 18.9157 2.71076
2324 1 108.332 17.2386 1.2837
2325 1 112.817 16.6804 2.71076
2326 1 111.135 17.798 1.2837
2327 1 113.938 18.3575 1.2837
2328 1 115.62 17.2398 2.71076
2329 1 116.742 18.9169 1.2837
2330 1 120.106 16.6816 1.2837
2331 1 118.424 17.7993 2.71076
2332 1 121.227 18.3587 2.71076
2333 1 122.909 17.2411 1.2837
2334 1 124.03 18.9182 2.71076
2335 1 125.712 17.8006 1.2837
2336 1 127.394 16.683 2.71076
2337 1 128.516 18.3599 1.2837
2338 1 130.198 17.2423 2.71076
2339 1 131.319 18.9191 1.2837
2340 1 134.685 16.682 1.2837
2341 1 133.002 17.8009 2.71076
2342 1 135.8 18.3643 2.71076
2343 1 138.603 18.9345 2.71076
2344 1 137.476 17.2486 1.2837
2345 1 142.032 16.8429 2.71076
2346 1 140.234 17.7913 1.2837
2347 1 141.491 19.3667 2.71076
2348 1 144.979 16.8328 2.71076
2349 1 143.669 18.5247 1.2837
281 1 0.396544 19.4724 2.71076
334 1 2.0895 20.6601 1.2837
335 1 1.01248 22.4017 2.71076
336 1 4.89446 20.1055 1.2837
337 1 3.77489 21.7839 2.71076
286 1 7.70453 19.547 1.2837
338 1 9.38585 20.6623 2.71076
339 1 6.57928 21.2225 2.71076
340 1 8.26278 22.3393 1.2837
341 1 12.189 20.0996 2.71076
342 1 11.0677 21.7779 1.2837
291 1 14.9924 19.5372 2.71076
343 1 13.8711 21.2155 1.2837
344 1 15.5532 22.3314 2.71076
345 1 16.6745 20.6531 1.2837
346 1 18.3567 21.769 2.71076
347 1 19.4781 20.0908 1.2837
348 1 21.1602 21.2067 2.71076
349 1 22.2816 19.5285 1.2837
350 1 23.9637 20.6444 2.71076
351 1 22.8423 22.3227 1.2837
352 1 26.7673 20.0821 2.71076
353 1 28.4494 21.198 1.2837
354 1 25.6458 21.7603 1.2837
355 1 29.5708 19.5198 2.71076
356 1 31.2529 20.6357 1.2837
357 1 30.1315 22.3139 2.71076
358 1 34.0564 20.0734 1.2837
359 1 32.935 21.7516 2.71076
360 1 36.8599 19.511 1.2837
361 1 35.7385 21.1893 2.71076
362 1 37.4206 22.3052 1.2837
363 1 38.5421 20.627 2.71076
364 1 40.2242 21.7429 1.2837
365 1 44.1492 19.5024 2.71076
366 1 41.3456 20.0647 2.71076
367 1 43.0277 21.1806 1.2837
368 1 45.8314 20.6183 1.2837
369 1 44.7099 22.2965 2.71076
370 1 47.5135 21.7343 2.71076
371 1 48.635 20.0561 1.2837
372 1 50.3173 21.1722 2.71076
373 1 51.4384 19.4939 1.2837
374 1 53.1207 20.61 2.71076
375 1 51.9996 22.2882 1.2837
376 1 55.9233 20.0472 2.71076
377 1 54.8032 21.7261 1.2837
378 1 58.7245 19.4827 2.71076
379 1 57.6056 21.1631 1.2837
380 1 59.2879 22.2794 2.71076
381 1 63.1999 20.0279 1.2837
382 1 60.4054 20.5978 1.2837
383 1 62.0851 21.7144 2.71076
384 1 66.0061 19.4664 1.2837
385 1 64.8677 21.1441 2.71076
386 1 66.535 22.2632 1.2837
387 1 67.6363 20.6117 2.71076
388 1 69.4422 21.5612 1.2837
2350 1 71.0872 19.9062 2.71076
2351 1 72.3916 21.6236 1.2837
2352 1 74.1094 20.5949 2.71076
2353 1 75.2467 22.2581 1.2837
2354 1 75.7987 19.4714 1.2837
2355 1 76.9266 21.1459 2.71076
2356 1 78.6119 20.0332 1.2837
2357 1 79.7298 21.7102 2.71076
2358 1 81.4157 20.5917 1.2837
2359 1 83.0994 19.4726 2.71076
2360 1 82.5408 22.265 2.71076
2361 1 84.223 21.1476 1.2837
2362 1 85.9051 20.0298 2.71076
2363 1 87.0279 21.706 1.2837
2364 1 90.3912 19.4711 1.2837
2365 1 88.7095 20.5886 2.71076
2366 1 91.5128 21.1482 2.71076
2367 1 89.8311 22.2657 1.2837
2368 1 93.1946 20.0306 1.2837
2369 1 94.3158 21.7079 2.71076
2370 1 97.6797 19.4726 2.71076
2371 1 97.1189 22.2674 2.71076
2372 1 95.9977 20.5902 1.2837
2373 1 100.483 20.0321 2.71076
2374 1 98.8009 21.1498 1.2837
2375 1 103.286 20.5916 2.71076
2376 1 101.604 21.7092 1.2837
2377 1 104.968 19.4739 1.2837
2378 1 104.407 22.2687 1.2837
2379 1 106.089 21.151 2.71076
2380 1 107.771 20.0334 1.2837
2381 1 108.893 21.7105 2.71076
2382 1 110.575 20.5928 1.2837
2383 1 112.257 19.4751 2.71076
2384 1 111.696 22.2699 2.71076
2385 1 113.378 21.1522 1.2837
2386 1 115.06 20.0346 2.71076
2387 1 116.181 21.7117 1.2837
2388 1 119.545 19.4764 1.2837
2389 1 117.863 20.594 2.71076
2390 1 118.984 22.2711 1.2837
2391 1 122.348 20.0358 1.2837
2392 1 120.666 21.1535 2.71076
2393 1 123.47 21.7129 2.71076
2394 1 126.273 22.2724 2.71076
2395 1 125.152 20.5953 1.2837
2396 1 126.834 19.4776 2.71076
2397 1 127.955 21.1547 1.2837
2398 1 129.637 20.037 2.71076
2399 1 132.439 20.5972 2.71076
2400 1 130.758 21.7145 1.2837
2401 1 134.12 19.4803 1.2837
2402 1 135.243 21.1566 2.71076
2403 1 133.562 22.2737 1.2837
2404 1 136.924 20.0411 1.2837
2405 1 138.062 21.7023 2.71076
2406 1 140.835 22.3389 2.71076
2407 1 139.77 20.5808 1.2837
2408 1 142.366 21.1093 1.2837
2409 1 144.675 21.1725 1.2837
389 1 2.67487 23.4792 1.2837
390 1 1.51877 25.1261 2.71076
391 1 5.46019 22.9011 1.2837
392 1 4.34751 24.5863 2.71076
393 1 6.0244 25.6994 1.2837
394 1 7.14281 24.0181 2.71076
395 1 8.82493 25.1343 1.2837
396 1 12.7497 22.8938 2.71076
397 1 9.94554 23.4556 2.71076
398 1 11.628 24.5718 1.2837
399 1 14.4317 24.0096 1.2837
400 1 13.3102 25.6878 2.71076
401 1 17.2353 23.4473 1.2837
402 1 18.9174 24.5632 2.71076
403 1 16.1138 25.1256 2.71076
404 1 20.0388 22.885 1.2837
405 1 21.7209 24.0009 2.71076
406 1 20.5995 25.6792 1.2837
407 1 24.5244 23.4386 2.71076
408 1 23.403 25.1168 1.2837
409 1 27.328 22.8763 2.71076
410 1 26.2065 24.5545 1.2837
411 1 27.8887 25.6704 2.71076
412 1 29.0101 23.9922 1.2837
413 1 30.6922 25.1081 2.71076
414 1 34.6171 22.8675 1.2837
415 1 31.8136 23.4299 1.2837
416 1 33.4957 24.5458 2.71076
417 1 36.2992 23.9835 2.71076
418 1 37.9814 25.0994 1.2837
419 1 35.1778 25.6617 1.2837
420 1 39.1027 23.4211 2.71076
421 1 40.7849 24.5371 1.2837
422 1 41.9063 22.8588 2.71076
423 1 43.5884 23.9747 1.2837
424 1 42.4669 25.653 2.71076
425 1 46.392 23.4124 1.2837
426 1 45.2704 25.0906 2.71076
427 1 49.1957 22.8502 1.2837
428 1 48.0741 24.5283 2.71076
429 1 49.7561 25.6442 1.2837
430 1 53.6821 23.4044 2.71076
431 1 50.878 23.9662 2.71076
432 1 52.5602 25.0821 1.2837
433 1 56.4858 22.8423 2.71076
434 1 55.3648 24.5205 1.2837
435 1 58.1685 23.9588 1.2837
436 1 59.8512 25.0761 2.71076
437 1 57.0476 25.637 2.71076
438 1 60.9701 23.397 1.2837
439 1 62.6527 24.5164 2.71076
440 1 63.7643 22.8347 1.2837
441 1 65.4479 23.955 2.71076
442 1 64.3388 25.6346 1.2837
443 1 67.1442 25.0599 1.2837
444 1 68.2165 23.3006 2.71076
445 1 69.7331 24.5274 1.2837
2410 1 70.9043 22.8701 2.71076
2411 1 72.0419 24.5836 1.2837
2412 1 73.5793 23.3511 2.71076
2413 1 74.6515 25.0904 1.2837
2414 1 76.3478 23.9504 2.71076
2415 1 78.0406 22.8281 1.2837
2416 1 77.4966 25.6102 1.2837
2417 1 79.1758 24.4957 2.71076
2418 1 80.8582 23.3813 1.2837
2419 1 81.9851 25.0557 2.71076
2420 1 85.3466 22.8233 2.71076
2421 1 84.7868 25.6178 2.71076
2422 1 83.6656 23.94 1.2837
2423 1 88.1495 23.3832 2.71076
2424 1 86.4681 24.5006 1.2837
2425 1 90.9521 23.9431 2.71076
2426 1 89.2702 25.0608 1.2837
2427 1 92.6339 22.8255 1.2837
2428 1 93.755 24.5028 2.71076
2429 1 92.073 25.6205 1.2837
2430 1 95.437 23.3851 1.2837
2431 1 96.5582 25.0622 2.71076
2432 1 99.9221 22.8269 2.71076
2433 1 99.3615 25.6216 2.71076
2434 1 98.2402 23.9446 1.2837
2435 1 101.043 24.504 1.2837
2436 1 102.725 23.3863 2.71076
2437 1 103.847 25.0634 1.2837
2438 1 107.211 22.8281 1.2837
2439 1 105.529 23.9458 2.71076
2440 1 106.65 25.6229 1.2837
2441 1 110.014 23.3876 1.2837
2442 1 108.332 24.5052 2.71076
2443 1 111.135 25.0647 2.71076
2444 1 112.817 23.947 1.2837
2445 1 114.499 22.8293 2.71076
2446 1 113.939 25.6241 2.71076
2447 1 115.62 24.5065 1.2837
2448 1 117.302 23.3888 2.71076
2449 1 118.424 25.0659 1.2837
2450 1 120.106 23.9483 2.71076
2451 1 121.788 22.8306 1.2837
2452 1 122.909 24.5077 2.71076
2453 1 121.227 25.6254 1.2837
2454 1 124.591 23.39 1.2837
2455 1 125.712 25.0672 2.71076
2456 1 129.076 22.832 2.71076
2457 1 128.516 25.6266 2.71076
2458 1 127.394 23.9496 1.2837
2459 1 131.88 23.3912 2.71076
2460 1 130.198 24.5089 1.2837
2461 1 133.002 25.0675 1.2837
2462 1 134.685 23.9486 2.71076
2463 1 135.8 25.6309 1.2837
2464 1 136.371 22.8275 1.2837
2465 1 137.476 24.5153 2.71076
2466 1 139.15 23.3917 1.2837
2467 1 140.234 25.0579 2.71076
2468 1 142.032 24.1095 1.2837
2469 1 143.494 22.8257 2.71076
2470 1 144.979 24.0994 1.2837
2471 1 143.669 25.7913 2.71076
446 1 3.20797 26.2522 1.2837
447 1 0.396544 26.7391 1.2837
448 1 2.0895 27.9267 2.71076
449 1 3.77489 29.0505 1.2837
450 1 4.89446 27.3721 2.71076
451 1 7.70453 26.8136 2.71076
452 1 6.57928 28.4892 1.2837
453 1 9.38585 27.9289 1.2837
454 1 11.0677 29.0446 2.71076
455 1 10.507 26.2503 2.71076
456 1 12.189 27.3662 1.2837
457 1 14.9924 26.8038 1.2837
458 1 13.8711 28.4821 2.71076
459 1 18.3567 29.0357 1.2837
460 1 17.796 26.2415 1.2837
461 1 16.6745 27.9197 2.71076
462 1 19.4781 27.3574 2.71076
463 1 21.1602 28.4733 1.2837
464 1 22.2816 26.7951 2.71076
465 1 25.0851 26.2328 2.71076
466 1 23.9637 27.911 1.2837
467 1 25.6458 29.027 2.71076
468 1 26.7673 27.3487 1.2837
469 1 28.4494 28.4646 2.71076
470 1 29.5708 26.7864 1.2837
471 1 31.2529 27.9023 2.71076
472 1 32.935 29.0182 1.2837
473 1 32.3743 26.2241 1.2837
474 1 34.0564 27.34 2.71076
475 1 36.86 26.7777 2.71076
476 1 35.7386 28.4559 1.2837
477 1 40.2242 29.0095 2.71076
478 1 39.6635 26.2153 2.71076
479 1 38.5421 27.8936 1.2837
480 1 44.149 26.7689 1.2837
481 1 41.3456 27.3313 1.2837
482 1 43.0277 28.4472 2.71076
483 1 47.5132 29.0007 1.2837
484 1 46.9525 26.2065 1.2837
485 1 45.8311 27.8848 2.71076
486 1 48.6345 27.3224 2.71076
487 1 50.3165 28.4382 1.2837
488 1 51.4381 26.76 2.71076
489 1 53.1201 27.8757 1.2837
45 1 54.8018 28.9914 2.71076
490 1 54.2425 26.1981 2.71076
491 1 55.9247 27.314 1.2837
492 1 58.7306 26.754 1.2837
493 1 57.6069 28.4301 2.71076
50 1 62.1006 28.9882 1.2837
494 1 61.5342 26.194 1.2837
495 1 60.4145 27.8714 2.71076
496 1 63.2186 27.31 2.71076
497 1 64.9041 28.421 1.2837
498 1 66.0318 26.7452 2.71076
55 1 69.4387 28.8935 2.71076
499 1 67.7212 27.8665 1.2837
500 1 68.8365 26.2409 2.71076
2472 1 70.7453 27.1729 1.2837
2473 1 72.3883 28.8253 2.71076
2474 1 72.9289 26.3121 2.71076
2475 1 74.1939 27.8729 1.2837
2476 1 75.8243 26.7258 2.71076
2477 1 76.9629 28.4022 1.2837
2478 1 78.6305 27.2844 2.71076
2479 1 80.306 26.17 1.2837
2480 1 81.4249 27.8514 2.71076
2481 1 79.7453 28.9697 1.2837
2482 1 83.1056 26.7346 1.2837
2483 1 84.2244 28.4138 2.71076
2484 1 87.5884 26.1785 2.71076
2485 1 87.0265 28.9739 2.71076
2486 1 85.9065 27.2961 1.2837
2487 1 88.7088 27.8561 1.2837
2488 1 90.3909 26.7383 2.71076
2489 1 91.512 28.4154 1.2837
2490 1 94.3155 28.9747 1.2837
2491 1 93.1941 27.2977 2.71076
2492 1 94.8761 26.1799 1.2837
2493 1 97.6795 26.7393 1.2837
2494 1 95.9975 27.857 2.71076
2495 1 98.8009 28.4164 2.71076
2496 1 100.483 27.2987 1.2837
2497 1 101.604 28.9758 2.71076
2498 1 102.165 26.1811 2.71076
2499 1 103.286 27.8582 1.2837
2500 1 104.968 26.7405 2.71076
2501 1 106.089 28.4176 1.2837
2502 1 108.893 28.9771 1.2837