ITEM: TIMESTEP
15864
ITEM: NUMBER OF ATOMS
21447
ITEM: BOX BOUNDS pp pp pp
7.7240565785735557e-02 1.3349736743421448e+02
2.7379954306781046e-02 5.5628707045692842e+01
9.0205151822568344e-03 3.1670979484817774e+01
ITEM: ATOMS id type x y z
1 1 1.01888 1.08033 1.74799
4 1 3.11651 2.2033 1.74817
6 1 6.49143 1.08513 1.7483
7 1 8.71577 2.19303 1.74838
11 1 12.0567 1.07807 1.74851
12 1 14.2857 2.18898 1.7486
13 1 17.6279 1.07526 1.74872
14 1 19.8568 2.18634 1.74881
15 1 23.1982 1.07241 1.74894
16 1 25.4271 2.18361 1.74902
17 1 28.7675 1.06924 1.74914
18 1 30.9966 2.1805 1.74922
19 1 34.3355 1.06536 1.74936
20 1 36.5646 2.17665 1.74947
21 1 39.9013 1.06031 1.74973
23 1 42.1304 2.17177 1.74993
25 1 45.4629 1.05357 1.7506
26 1 47.6914 2.16566 1.75105
30 1 51.0156 1.04427 1.75276
31 1 53.2427 2.15791 1.75367
34 1 56.548 1.02905 1.75793
36 1 58.7698 2.146 1.75971
39 1 61.98 0.990046 1.7562
41 1 64.0888 2.16474 1.68718
45 1 67.8749 2.57873 0.183594
46 1 67.2932 0.841342 1.71429
12160 1 69.3405 1.90041 2.20511
11000 1 71.4993 2.17726 1.69967
11001 1 73.5179 0.959535 1.75109
11004 1 76.6938 2.12793 1.75482
11006 1 78.9147 1.0133 1.75274
11009 1 82.2182 2.1446 1.74981
11012 1 84.4444 1.03212 1.74871
11014 1 87.7667 2.15511 1.74718
11018 1 89.995 1.04357 1.74672
11021 1 93.3266 2.16276 1.7462
11024 1 95.5557 1.05169 1.74616
11028 1 98.892 2.1688 1.74621
11031 1 101.121 1.05789 1.74633
11034 1 104.46 2.17372 1.74654
11035 1 106.689 1.06285 1.74668
11040 1 112.259 1.06709 1.74699
11041 1 110.03 2.17789 1.74688
11044 1 115.6 2.18168 1.74716
11047 1 117.83 1.07103 1.74725
11050 1 121.172 2.18539 1.74739
11053 1 123.401 1.07491 1.74748
11056 1 126.742 2.19051 1.7476
11060 1 128.966 1.08303 1.74769
11062 1 132.341 2.20194 1.74781
47 1 2.14541 4.40298 1.74815
48 1 5.36757 3.30408 1.74825
49 1 4.28153 5.54532 1.74821
52 1 7.59825 4.41574 1.74834
53 1 10.9436 3.30296 1.74847
54 1 9.82853 5.52672 1.74842
57 1 13.1722 4.41358 1.74855
58 1 16.5147 3.29998 1.74868
59 1 15.4011 5.52448 1.74864
60 1 18.7437 4.41108 1.74877
61 1 20.9728 5.52224 1.74885
62 1 22.0858 3.29751 1.74889
63 1 24.3149 4.40874 1.74898
64 1 26.5442 5.52002 1.74906
65 1 27.6563 3.29488 1.7491
66 1 29.8855 4.40619 1.74918
67 1 32.115 5.51757 1.74925
68 1 33.2258 3.29182 1.7493
69 1 35.4553 4.40324 1.74939
71 1 37.685 5.51479 1.74947
70 1 38.794 3.28809 1.74958
72 1 41.0237 4.39978 1.74971
73 1 44.3597 3.28364 1.75017
74 1 43.2536 5.51182 1.74986
76 1 46.5894 4.39613 1.75043
78 1 49.9203 3.27876 1.75151
79 1 48.8194 5.5095 1.75064
82 1 52.1499 4.39331 1.75185
83 1 55.4708 3.27385 1.75452
84 1 54.3801 5.50987 1.75188
87 1 57.7 4.39316 1.75507
89 1 60.9892 3.27346 1.75835
90 1 59.9276 5.5194 1.75449
92 1 63.1968 4.43775 1.72905
94 1 65.4582 5.55625 1.67824
95 1 66.2274 3.29435 1.67461
97 1 68.521 4.15183 1.87402
11066 1 70.4638 3.87413 0.156938
11067 1 70.1597 5.65022 1.83347
11068 1 72.2935 4.42746 1.77387
11070 1 74.4783 3.25256 1.75457
11071 1 75.544 5.50414 1.7567
11073 1 77.7646 4.37664 1.75429
11075 1 79.9914 3.25908 1.75143
11076 1 81.079 5.49723 1.75001
11078 1 85.5381 3.26757 1.74783
11079 1 83.309 4.3814 1.74872
11081 1 86.6376 5.49921 1.74722
11083 1 88.8676 4.38629 1.7467
11084 1 91.0972 3.27422 1.74637
11086 1 94.4327 4.3912 1.7461
11087 1 92.2026 5.50288 1.74619
11089 1 96.6625 3.27988 1.74612
11090 1 97.7712 5.5069 1.74616
11092 1 100.001 4.3957 1.74627
11094 1 102.231 3.28466 1.7464
11095 1 103.342 5.51066 1.7465
11097 1 105.571 4.39967 1.74663
11099 1 107.801 3.28875 1.74676
11100 1 108.913 5.51411 1.74684
11103 1 111.142 4.40324 1.74695
11104 1 113.371 3.29242 1.74706
11105 1 114.484 5.51736 1.74712
11108 1 116.714 4.40662 1.74721
11110 1 118.943 3.29596 1.7473
11111 1 120.056 5.52065 1.74735
11114 1 122.285 4.41019 1.74744
11113 1 124.514 3.30001 1.74752
11116 1 125.629 5.52396 1.74756
11118 1 130.09 3.30222 1.74773
11119 1 127.86 4.41343 1.74765
11121 1 133.313 4.40163 1.74783
11122 1 131.177 5.54357 1.74777
99 1 1.01895 6.63952 1.74799
101 1 3.11682 7.76212 1.74817
104 1 6.49202 6.64425 1.7483
105 1 8.71638 7.75218 1.74838
110 1 12.0579 6.63769 1.74851
111 1 14.287 7.74868 1.74859
112 1 17.6301 6.63553 1.74872
114 1 19.8592 7.74667 1.7488
115 1 23.202 6.63346 1.74893
117 1 25.4313 7.74473 1.74901
118 1 28.7735 6.63134 1.74913
120 1 31.0031 7.74272 1.7492
121 1 34.3446 6.62903 1.74932
123 1 36.5744 7.74061 1.74938
125 1 39.9149 6.62655 1.74956
127 1 42.145 7.73862 1.74964
130 1 45.4837 6.62439 1.75001
131 1 47.7141 7.7377 1.75012
136 1 51.0498 6.62408 1.75068
137 1 53.2806 7.74026 1.75032
140 1 56.6112 6.62915 1.75156
143 1 58.8419 7.75296 1.75082
146 1 62.1498 6.65782 1.74781
149 1 64.3762 7.76536 1.74098
153 1 67.7416 6.58142 1.78231
11124 1 69.341 7.07919 0.0423759
11125 1 71.1228 7.80067 1.76687
11126 1 73.328 6.64947 1.75203
11129 1 76.619 7.74124 1.75429
11131 1 78.8483 6.61599 1.75218
11134 1 82.176 7.72915 1.7486
11137 1 84.4071 6.61335 1.74789
11139 1 87.7418 7.72803 1.74685
11142 1 89.9723 6.61509 1.74643
11145 1 93.3107 7.73003 1.74612
11147 1 95.5411 6.6183 1.7461
11150 1 98.8816 7.73297 1.74625
11153 1 101.112 6.62175 1.74636
11155 1 104.453 7.73602 1.7466
11156 1 106.683 6.62503 1.74672
11160 1 110.026 7.739 1.74692
11161 1 112.255 6.62816 1.74702
11164 1 115.598 7.74196 1.74718
11166 1 117.827 6.63126 1.74726
11169 1 121.171 7.74503 1.7474
11171 1 123.4 6.63448 1.74748
11174 1 126.742 7.74959 1.74761
11177 1 128.966 6.64209 1.74769
11179 1 132.341 7.7607 1.74781
154 1 2.1455 9.96151 1.74815
102 1 5.36784 8.86287 1.74825
156 1 4.28153 11.1038 1.74821
159 1 7.59843 9.97457 1.74833
108 1 10.9441 8.86218 1.74846
161 1 9.82854 11.0856 1.74842
164 1 13.1727 9.97287 1.74855
113 1 16.516 8.85973 1.74868
165 1 15.4015 11.0838 1.74863
166 1 18.745 9.97084 1.74876
116 1 22.0884 8.85786 1.74889
167 1 20.9741 11.082 1.74884
168 1 24.3176 9.96908 1.74896
169 1 26.547 11.0803 1.74904
119 1 27.6607 8.85603 1.74908
170 1 29.8902 9.96738 1.74915
171 1 32.1199 11.0788 1.74921
122 1 33.2328 8.85418 1.74926
172 1 35.4626 9.96574 1.74932
173 1 37.6926 11.0775 1.74936
124 1 38.8044 8.85238 1.74944
174 1 41.0346 9.96442 1.74949
129 1 44.3753 8.85115 1.74973
176 1 43.2649 11.0768 1.74954
178 1 46.6057 9.96428 1.7498
135 1 49.9445 8.852 1.75012
181 1 48.8361 11.0782 1.74982
184 1 52.1752 9.96754 1.74984
142 1 55.5118 8.85833 1.74939
186 1 54.4062 11.0844 1.7491
189 1 57.7433 9.97853 1.74776
148 1 61.0727 8.88141 1.74949
192 1 59.9756 11.0984 1.74582
194 1 63.3075 10.0009 1.75808
196 1 64.9662 9.45556 0.0248951
197 1 66.5878 8.86302 1.73833
198 1 65.607 11.0771 1.75787
199 1 67.6722 10.4649 0.0394233
200 1 68.8753 8.84361 1.69898
11182 1 70.5282 9.43108 0.03652
11183 1 69.843 11.0606 1.74885
11184 1 72.1653 10.0067 1.76705
11187 1 74.3909 8.87338 1.75181
11188 1 75.4797 11.0893 1.74496
11190 1 77.7122 9.96791 1.74857
11193 1 79.9442 8.84704 1.74915
11194 1 81.0482 11.0738 1.74818
11197 1 85.511 8.84198 1.74742
11198 1 83.2799 9.95719 1.74797
11200 1 86.6187 11.0685 1.74706
11203 1 88.8495 9.95497 1.7466
11204 1 91.0802 8.84219 1.74628
11206 1 92.1903 11.0681 1.74621
11207 1 94.4209 9.95605 1.74614
11210 1 96.6514 8.84437 1.74616
11211 1 97.7632 11.0696 1.74626
11213 1 99.9934 9.95828 1.74636
11216 1 102.224 8.84709 1.74647
11217 1 103.337 11.0719 1.74659
11219 1 105.566 9.96084 1.7467
11222 1 107.796 8.84989 1.74681
11223 1 108.91 11.0743 1.74689
11226 1 111.139 9.96351 1.74699
11227 1 113.369 8.85272 1.74709
11228 1 114.483 11.077 1.74714
11231 1 116.712 9.96629 1.74723
11233 1 118.942 8.85563 1.74731
11234 1 120.056 11.0799 1.74736
11237 1 122.285 9.96938 1.74744
11236 1 124.514 8.85915 1.74752
11239 1 125.629 11.0828 1.74757
11241 1 130.09 8.86093 1.74773
11242 1 127.86 9.97217 1.74765
11244 1 131.177 11.102 1.74778
11245 1 133.313 9.96009 1.74783
201 1 1.01908 12.1979 1.74799
203 1 3.11677 13.3204 1.74817
204 1 5.36743 14.4213 1.74825
206 1 6.49184 12.2028 1.74829
207 1 8.71593 13.3109 1.74838
209 1 10.9434 14.4209 1.74846
211 1 12.0577 12.1967 1.7485
212 1 14.2866 13.3077 1.74858
213 1 17.6304 12.1948 1.74871
214 1 16.5154 14.4187 1.74867
215 1 19.8594 13.3059 1.74879
216 1 23.2033 12.1931 1.74892
217 1 22.0884 14.417 1.74887
218 1 25.4326 13.3043 1.74899
219 1 28.7765 12.1916 1.74911
220 1 27.662 14.4155 1.74906
221 1 31.0061 13.303 1.74916
222 1 34.3497 12.1903 1.74926
223 1 33.2358 14.4144 1.74922
224 1 36.5796 13.302 1.7493
225 1 38.8097 14.4139 1.74933
226 1 39.9227 12.1895 1.74939
227 1 42.1529 13.3018 1.74942
228 1 44.3832 14.4145 1.74946
230 1 45.4952 12.1898 1.74959
231 1 47.7256 13.3034 1.74963
233 1 49.9561 14.4176 1.74961
235 1 51.0667 12.1931 1.74971
236 1 53.2975 13.3087 1.74931
239 1 55.5289 14.4245 1.74847
238 1 56.6379 12.2022 1.74776
241 1 58.8717 13.3187 1.74617
243 1 62.2063 12.2096 1.7493
244 1 61.1085 14.4299 1.74704
246 1 64.4324 13.2979 1.75779
248 1 67.7268 12.2126 1.76869
249 1 66.5935 14.4367 1.75971
250 1 66.1445 12.7479 0.0170434
251 1 68.8621 14.423 1.75744
11248 1 69.3052 12.7278 0.0111259
11250 1 71.0204 13.2815 1.75391
11249 1 73.2502 12.2039 1.74671
11252 1 76.5813 13.3084 1.74466
11253 1 74.3437 14.4196 1.74402
11255 1 78.8159 12.1917 1.74731
11258 1 79.9243 14.4137 1.74727
11257 1 82.1562 13.2983 1.74778
11260 1 84.3876 12.183 1.74755
11261 1 85.4979 14.4076 1.74716
11263 1 87.7289 13.2938 1.74676
11265 1 89.9597 12.1806 1.74642
11266 1 91.0716 14.4054 1.74633
11269 1 93.3022 13.2931 1.74622
11270 1 95.5328 12.1812 1.74621
11271 1 96.646 14.4057 1.74631
11274 1 98.8763 13.2943 1.74638
11276 1 101.106 12.183 1.74648
11277 1 102.221 14.4072 1.74659
11280 1 104.451 13.2962 1.74669
11279 1 106.68 12.1852 1.74679
11282 1 107.795 14.4092 1.74687
11285 1 112.254 12.1877 1.74705
11286 1 110.025 13.2984 1.74696
11288 1 113.369 14.4117 1.74711
11289 1 115.598 13.301 1.7472
11292 1 117.827 12.1904 1.74728
11294 1 121.171 13.3039 1.74741
11295 1 118.942 14.4144 1.74732
11298 1 123.4 12.1933 1.74749
11299 1 124.515 14.4178 1.74753
11302 1 126.742 13.3082 1.74761
11304 1 128.966 12.2006 1.74769
11305 1 130.091 14.4193 1.74773
11308 1 132.341 13.3189 1.74781
252 1 2.1455 15.5197 1.74815
255 1 4.28104 16.6622 1.7482
258 1 7.59764 15.5331 1.74833
260 1 9.82733 16.6443 1.74841
263 1 13.1716 15.5316 1.74854
264 1 15.4001 16.6425 1.74862
265 1 18.7442 15.5297 1.74875
266 1 20.973 16.6406 1.74882
267 1 24.3175 15.528 1.74894
268 1 26.5468 16.6391 1.74901
269 1 29.8915 15.5268 1.74912
270 1 32.1211 16.6381 1.74917
271 1 35.4657 15.526 1.74926
272 1 37.6956 16.6378 1.74929
273 1 41.0398 15.5261 1.74936
275 1 43.2701 16.6386 1.74938
277 1 46.6136 15.5277 1.74949
280 1 48.8441 16.6414 1.74952
283 1 52.1869 15.5323 1.74946
285 1 54.4184 16.6468 1.74902
288 1 57.7617 15.5384 1.74735
291 1 59.9959 16.6477 1.7473
293 1 63.3475 15.535 1.75162
294 1 65.6125 16.6293 1.75316
11310 1 69.8385 16.6176 1.75023
11311 1 72.1022 15.5203 1.74757
11314 1 75.4561 16.6357 1.74488
11316 1 77.6909 15.5273 1.74572
11319 1 81.0346 16.6358 1.74727
11322 1 83.2666 15.5218 1.74743
11324 1 86.61 16.6314 1.74684
11327 1 88.8409 15.5182 1.74655
11329 1 94.4155 15.5175 1.74628
11330 1 92.185 16.6295 1.74633
11333 1 97.7603 16.6297 1.74642
11335 1 99.9905 15.5183 1.74649
11338 1 103.336 16.631 1.74668
11340 1 105.565 15.52 1.74678
11343 1 108.91 16.6329 1.74694
11346 1 111.14 15.5223 1.74703
11348 1 114.485 16.6354 1.74716
11351 1 116.714 15.5249 1.74724
11354 1 120.058 16.6384 1.74737
11356 1 122.286 15.528 1.74745
11359 1 125.631 16.6413 1.74757
11362 1 127.861 15.5306 1.74765
11364 1 133.313 15.5182 1.74783
11365 1 131.178 16.6603 1.74778
253 1 1.01921 17.7559 1.74799
299 1 3.1163 18.8788 1.74817
300 1 5.36639 19.98 1.74825
303 1 6.49088 17.7614 1.74829
304 1 8.71445 18.8696 1.74837
306 1 10.9414 19.9797 1.74845
309 1 12.0561 17.7553 1.7485
310 1 14.2845 18.8662 1.74858
311 1 17.6286 17.7534 1.7487
312 1 16.5129 19.9771 1.74866
313 1 19.8572 18.8642 1.74878
314 1 23.2019 17.7516 1.7489
315 1 22.0859 19.9751 1.74885
316 1 25.4309 18.8626 1.74897
317 1 28.7761 17.7503 1.74908
318 1 27.66 19.9735 1.74904
319 1 31.0055 18.8615 1.74913
320 1 34.3508 17.7496 1.74922
321 1 33.235 19.9728 1.74919
322 1 36.5806 18.8612 1.74926
323 1 38.8105 19.9731 1.74929
324 1 39.9257 17.7498 1.74932
325 1 42.1558 18.8621 1.74934
326 1 44.3861 19.9747 1.74938
329 1 45.5004 17.7515 1.74942
330 1 47.7309 18.8647 1.74945
332 1 49.9618 19.978 1.74947
335 1 51.0749 17.7554 1.74949
336 1 53.3064 18.8688 1.74928
339 1 55.5389 19.9807 1.74889
338 1 56.6513 17.7596 1.74832
342 1 58.8863 18.8693 1.74801
345 1 62.2286 17.7509 1.74909
346 1 61.1233 19.976 1.74844
348 1 64.4494 18.8435 1.74972
350 1 67.7268 17.7375 1.75536
352 1 66.5979 19.9761 1.75074
353 1 68.8571 19.9686 1.74899
11370 1 71.0036 18.8314 1.74723
11371 1 73.2228 17.7369 1.74615
11373 1 76.5658 18.857 1.74588
11374 1 74.3286 19.9631 1.74618
11376 1 78.8012 17.748 1.74649
11378 1 79.914 19.9689 1.74682
11379 1 82.1469 18.8576 1.74713
11381 1 84.3787 17.7447 1.7471
11382 1 85.4922 19.9673 1.74685
11384 1 87.7234 18.8546 1.74665
11386 1 89.9543 17.7419 1.74645
11387 1 91.0689 19.9651 1.74643
11390 1 93.2995 18.853 1.74637
11391 1 95.53 17.7412 1.74637
11392 1 96.6455 19.9645 1.74646
11395 1 98.8757 18.8531 1.74652
11397 1 101.106 17.742 1.7466
11398 1 102.222 19.9652 1.74668
11401 1 104.452 18.8544 1.74677
11400 1 106.681 17.7436 1.74685
11403 1 107.797 19.967 1.74692
11405 1 112.256 17.7459 1.74708
11406 1 110.027 18.8564 1.747
11408 1 113.372 19.9695 1.74713
11409 1 115.601 18.8592 1.74721
11411 1 117.829 17.7488 1.74729
11413 1 121.174 18.8623 1.74741
11414 1 118.945 19.9727 1.74733
11416 1 123.402 17.7519 1.74749
11417 1 124.517 19.9764 1.74753
11419 1 126.744 18.8668 1.74761
11421 1 128.968 17.7591 1.74769
11422 1 130.092 19.9779 1.74773
11424 1 132.342 18.8772 1.74781
354 1 2.14539 21.0781 1.74815
355 1 1.01929 23.3145 1.74799
357 1 4.28018 22.2211 1.7482
359 1 7.59605 21.092 1.74833
360 1 6.4894 23.3206 1.74829
362 1 9.82519 22.2032 1.74841
364 1 12.0534 23.3142 1.74849
365 1 13.1691 21.0903 1.74853
366 1 15.3971 22.2009 1.74861
367 1 17.6251 23.3115 1.74869
368 1 18.7412 21.0878 1.74874
369 1 20.9695 22.1985 1.74881
370 1 23.1979 23.3091 1.74889
371 1 24.3146 21.0859 1.74893
372 1 26.5434 22.1967 1.749
374 1 28.7722 23.3075 1.74906
373 1 29.8892 21.0846 1.7491
375 1 32.1184 22.1957 1.74915
376 1 35.4646 21.0843 1.74923
377 1 34.3478 23.3069 1.7492
378 1 37.6944 22.1959 1.74927
379 1 41.0406 21.0852 1.74932
380 1 39.9243 23.3077 1.74931
382 1 43.2708 22.1975 1.74936
383 1 46.6166 21.0876 1.74942
384 1 45.5013 23.3099 1.7494
387 1 48.8475 22.2003 1.74944
389 1 52.1933 21.0908 1.74939
390 1 51.0791 23.3126 1.74942
392 1 54.4258 22.2022 1.74918
393 1 56.6595 23.3118 1.74896
395 1 57.7727 21.0899 1.74858
397 1 60.0066 22.1962 1.74856
398 1 62.2382 23.2987 1.74851
401 1 63.3617 21.0812 1.74866
402 1 65.6207 22.1742 1.74871
404 1 67.7274 23.2879 1.74732
11426 1 69.8325 22.167 1.74743
11427 1 72.091 21.0702 1.74674
11428 1 73.2156 23.2878 1.74675
11431 1 75.4462 22.1838 1.74652
11433 1 77.68 21.0776 1.74649
11434 1 78.7938 23.2996 1.74675
11437 1 81.0276 22.1904 1.74688
11440 1 83.2604 21.0795 1.74695
11441 1 84.3752 23.3012 1.7468
11443 1 86.6069 22.1895 1.74669
11446 1 88.8381 21.0773 1.74655
11447 1 89.954 23.2996 1.74652
11449 1 94.4152 21.076 1.74644
11450 1 92.1847 22.1878 1.74646
11454 1 95.532 23.2985 1.74651
11453 1 97.7621 22.1873 1.74655
11456 1 99.9921 21.0762 1.74661
11459 1 103.339 22.1881 1.74676
11460 1 101.109 23.2989 1.74668
11462 1 105.568 21.0775 1.74683
11463 1 106.686 23.3005 1.74689
11466 1 108.914 22.1902 1.74697
11469 1 111.143 21.0799 1.74705
11470 1 112.26 23.3033 1.74709
11472 1 114.489 22.1931 1.74717
11475 1 116.717 21.0829 1.74725
11476 1 117.833 23.3068 1.74729
11479 1 120.061 22.1967 1.74737
11481 1 122.289 21.0865 1.74745
11482 1 123.405 23.3106 1.74749
11485 1 125.633 22.2001 1.74757
11488 1 127.862 21.0894 1.74765
11547 1 128.969 23.3182 1.74769
11490 1 133.313 21.0766 1.74783
11491 1 131.179 22.2192 1.74778
407 1 3.11556 24.438 1.74817
408 1 5.36508 25.5395 1.74825
411 1 8.71239 24.4288 1.74837
413 1 10.9388 25.5389 1.74845
416 1 14.2813 24.4249 1.74857
417 1 16.509 25.5355 1.74865
418 1 19.8531 24.4221 1.74877
419 1 22.0811 25.5326 1.74884
420 1 25.4263 24.4198 1.74896
421 1 27.6547 25.5304 1.74902
422 1 31.0011 24.4184 1.74912
423 1 33.23 25.5293 1.74917
424 1 36.5772 24.4183 1.74925
425 1 38.8068 25.5298 1.74929
426 1 42.1543 24.4197 1.74935
427 1 44.3847 25.5318 1.74939
430 1 47.7322 24.4222 1.74943
432 1 49.9637 25.5341 1.74944
435 1 53.3114 24.4237 1.74932
437 1 55.5446 25.5332 1.74917
440 1 58.8944 24.4194 1.74881
443 1 61.1307 25.5256 1.74865
445 1 64.4557 24.3917 1.74834
449 1 66.5995 25.5281 1.74796
450 1 68.8565 25.5227 1.74714
11496 1 70.9993 24.3835 1.7471
11498 1 76.5591 24.4074 1.74675
11499 1 74.3235 25.515 1.74687
11503 1 79.9095 25.5211 1.7468
11504 1 82.1427 24.4118 1.74682
11507 1 85.4912 25.5226 1.7467
11509 1 87.7229 24.4113 1.74661
11512 1 91.0712 25.5214 1.74653
11515 1 93.3018 24.4099 1.7465
11517 1 96.65 25.5206 1.74657
11520 1 98.8798 24.4097 1.74662
11523 1 102.228 25.5213 1.74674
11525 1 104.457 24.4109 1.74681
11528 1 107.803 25.5235 1.74694
11531 1 110.032 24.4134 1.74701
11534 1 113.377 25.5268 1.74713
11533 1 115.605 24.4169 1.74721
11538 1 121.177 24.4208 1.74741
11539 1 118.949 25.5309 1.74733
11542 1 124.52 25.5355 1.74753
11544 1 126.746 24.426 1.74761
11548 1 130.094 25.5373 1.74773
11550 1 132.343 24.4364 1.74781
451 1 2.1452 26.6377 1.74815
452 1 1.01929 28.8743 1.74799
454 1 4.27929 27.7811 1.7482
457 1 7.59423 26.6517 1.74833
458 1 6.48801 28.8807 1.74829
460 1 9.82289 27.7629 1.74841
463 1 12.0506 28.8737 1.74849
464 1 13.166 26.6493 1.74853
465 1 15.3934 27.7597 1.74861
466 1 17.6208 28.8701 1.74869
467 1 18.7368 26.6459 1.74873
468 1 20.9644 27.7562 1.7488
469 1 23.192 28.8665 1.74888
470 1 24.3091 26.643 1.74892
471 1 26.5371 27.7533 1.74898
473 1 28.765 28.8637 1.74905
472 1 29.8832 26.641 1.74908
474 1 32.1116 27.7516 1.74914
475 1 35.4591 26.6404 1.74923
476 1 34.3402 28.8623 1.7492
477 1 37.6883 27.7515 1.74928
478 1 41.0367 26.6414 1.74934
479 1 39.9177 28.8627 1.74933
481 1 43.2668 27.7531 1.74939
482 1 46.6155 26.6437 1.74943
483 1 45.4974 28.8646 1.74944
486 1 48.847 27.7552 1.74945
488 1 52.196 26.645 1.74939
489 1 51.0791 28.8659 1.74945
491 1 54.4291 27.7547 1.7493
492 1 56.663 28.8632 1.74917
494 1 57.7784 26.641 1.74902
496 1 60.0119 27.747 1.74883
497 1 62.2421 28.8506 1.74857
499 1 63.3672 26.632 1.74844
500 1 65.624 27.7277 1.74813
502 1 67.7281 28.845 1.74764
11553 1 69.8311 27.7222 1.74723
11554 1 72.0877 26.6237 1.74706
11555 1 73.2138 28.8418 1.74697
11558 1 75.4432 27.7364 1.74688
11559 1 77.676 26.6292 1.74682
11560 1 78.7923 28.8516 1.74677
11563 1 81.0259 27.7427 1.74676
11565 1 83.2589 26.6332 1.74674
11566 1 84.3766 28.8541 1.74667
11568 1 86.6087 27.7437 1.74664
11570 1 88.8402 26.6327 1.74658
11571 1 89.9591 28.8536 1.74658
11573 1 94.42 26.6317 1.74655
11574 1 92.1898 27.7427 1.74655
11577 1 95.5396 28.853 1.74659
11576 1 97.7691 27.7424 1.74663
11579 1 99.9984 26.6318 1.74668
11581 1 103.346 27.7437 1.74678
11582 1 101.118 28.8538 1.74672
11584 1 105.575 26.6336 1.74686
11585 1 106.693 28.8564 1.74689
11587 1 108.921 27.7466 1.74697
11589 1 111.149 26.6367 1.74705
11590 1 112.266 28.8604 1.74709
11592 1 114.494 27.7507 1.74717
11594 1 116.722 26.6409 1.74725
11595 1 117.838 28.8652 1.74729
11598 1 120.065 27.7554 1.74737
11599 1 122.293 26.6455 1.74745
11600 1 123.408 28.8701 1.74749
11603 1 125.636 27.7598 1.74757
11605 1 127.864 26.649 1.74765
11606 1 128.971 28.8783 1.74769
11608 1 133.314 26.6362 1.74783
11609 1 131.18 27.7792 1.74778
504 1 2.14504 32.1985 1.74815
506 1 3.11487 29.9984 1.74817
507 1 5.36408 31.1001 1.74825
509 1 8.71059 29.989 1.74837
510 1 7.59299 32.2124 1.74833
512 1 10.9366 31.099 1.74845
514 1 14.2781 29.9842 1.74857
515 1 13.1635 32.2093 1.74853
516 1 16.5054 31.0946 1.74865
517 1 19.8482 29.9803 1.74877
518 1 18.7326 32.2048 1.74873
519 1 22.0754 31.0904 1.74884
520 1 25.4196 29.9766 1.74895
521 1 24.3026 32.2004 1.74891
522 1 27.647 31.0868 1.74902
523 1 29.8743 32.1968 1.74908
524 1 30.9929 29.974 1.74911
525 1 33.2208 31.0844 1.74918
526 1 35.4487 32.1946 1.74924
527 1 36.5688 29.9731 1.74926
528 1 38.7976 31.0838 1.74932
529 1 41.0266 32.1944 1.74939
530 1 42.1474 29.9739 1.74939
531 1 44.3776 31.085 1.74945
535 1 46.6083 32.1956 1.74952
534 1 47.7286 29.9757 1.74948
537 1 49.9605 31.0863 1.74951
540 1 53.312 29.9757 1.7494
542 1 52.1931 32.1961 1.74951
543 1 55.5455 31.0845 1.74931
546 1 58.8976 29.9709 1.74898
549 1 57.7792 32.1925 1.74914
550 1 61.1331 31.0783 1.7487
552 1 64.4579 29.9459 1.74826
555 1 63.3685 32.1867 1.74832
557 1 66.6002 31.0848 1.74794
558 1 68.8571 31.0801 1.7471
11613 1 70.9987 29.9392 1.74711
11671 1 72.0883 32.1795 1.7468
11615 1 76.5582 29.9603 1.74678
11616 1 74.3233 31.0692 1.74679
11620 1 79.9107 31.0729 1.74666
11677 1 77.6776 32.1817 1.74661
11621 1 82.1439 29.9638 1.74668
11624 1 85.4961 31.0745 1.74663
11684 1 83.2637 32.1842 1.74662
11626 1 87.7279 29.9643 1.74661
11690 1 88.849 32.1842 1.7466
11629 1 91.0797 31.074 1.74659
11632 1 93.3098 29.9636 1.74658
11694 1 94.4313 32.1841 1.74661
11634 1 96.6603 31.0741 1.74662
11637 1 98.8891 29.964 1.74666
11701 1 100.01 32.1857 1.74669
11640 1 102.238 31.076 1.74675
11642 1 104.465 29.9662 1.74682
11707 1 105.584 32.1892 1.74685
11645 1 107.811 31.0797 1.74693
11648 1 110.039 29.9701 1.74701
11713 1 111.156 32.1941 1.74704
11651 1 113.383 31.0846 1.74712
11650 1 115.61 29.975 1.74721
11719 1 116.726 32.1997 1.74724
11655 1 121.18 29.9802 1.74741
11656 1 118.953 31.09 1.74733
11659 1 124.522 31.0956 1.74753
11725 1 122.295 32.2054 1.74745
11661 1 126.748 29.9862 1.74761
11664 1 130.095 31.098 1.74773
11732 1 127.866 32.2098 1.74765
11666 1 132.344 29.9969 1.74781
11735 1 133.314 32.1971 1.74783
559 1 1.01921 34.4355 1.74799
561 1 4.27878 33.3423 1.7482
564 1 6.48736 34.442 1.74829
566 1 9.82148 33.3235 1.74841
569 1 12.0491 34.4343 1.74849
570 1 15.3906 33.3195 1.74861
571 1 17.6177 34.4297 1.74869
572 1 20.9596 33.3148 1.7488
573 1 23.1865 34.4248 1.74888
574 1 26.5296 33.3104 1.74898
575 1 28.7564 34.4203 1.74905
576 1 32.1015 33.3068 1.74915
577 1 34.3286 34.4167 1.74922
578 1 37.6766 33.3048 1.74931
579 1 39.9046 34.4148 1.7494
580 1 43.256 33.3048 1.74948
582 1 45.4858 34.4149 1.74958
585 1 48.8397 33.3058 1.74959
588 1 51.0718 34.4155 1.74966
590 1 54.4265 33.3052 1.74947
591 1 56.6604 34.414 1.74937
595 1 60.0122 33.2997 1.74887
596 1 62.2419 34.4053 1.74846
599 1 65.6248 33.2846 1.74781
602 1 67.7288 34.4033 1.7471
11669 1 69.8319 33.2795 1.74682
11672 1 73.2161 34.3972 1.74642
11675 1 75.4451 33.2902 1.74652
11678 1 78.7973 34.4031 1.74645
11681 1 81.0307 33.2936 1.74657
11685 1 84.386 34.4036 1.7466
11687 1 86.6178 33.2941 1.74662
11691 1 89.9724 34.4036 1.74663
11695 1 92.2021 33.294 1.74661
11698 1 95.5539 34.4047 1.74663
11697 1 97.7818 33.2953 1.74665
11703 1 103.357 33.2986 1.74678
11704 1 101.13 34.4079 1.74671
11708 1 106.702 34.4129 1.74687
11710 1 108.929 33.3036 1.74695
11714 1 112.272 34.4188 1.74707
11716 1 114.499 33.3093 1.74716
11720 1 117.841 34.4249 1.74728
11723 1 120.068 33.3152 1.74736
11726 1 123.409 34.4307 1.74749
11729 1 125.637 33.3205 1.74757
11733 1 128.971 34.4396 1.74769
11736 1 131.18 33.3404 1.74778
604 1 2.14496 37.7605 1.74815
606 1 3.11455 35.56 1.74817
607 1 5.36386 36.6617 1.74825
609 1 8.70993 35.5502 1.74837
610 1 7.59293 37.774 1.74833
612 1 10.936 36.6601 1.74845
614 1 14.2765 35.5447 1.74857
615 1 13.163 37.7703 1.74854
616 1 16.5036 36.655 1.74865
617 1 19.8447 35.5398 1.74877
618 1 18.7307 37.7652 1.74873
619 1 22.0716 36.6498 1.74884
620 1 25.4133 35.5347 1.74895
621 1 24.2982 37.7598 1.74892
622 1 27.6398 36.6445 1.74902
623 1 29.866 37.7542 1.7491
624 1 30.983 35.53 1.74913
625 1 33.2094 36.6396 1.74921
626 1 35.4355 37.7489 1.7493
627 1 36.5555 35.5264 1.74931
628 1 38.7824 36.6358 1.74941
629 1 41.0092 37.7448 1.74955
630 1 42.1328 35.5246 1.74951
631 1 44.3613 36.6339 1.74966
634 1 46.5902 37.7428 1.74987
633 1 47.7163 35.5246 1.74971
636 1 49.9474 36.6338 1.74987
638 1 53.3047 35.5247 1.74972
639 1 52.1794 37.7427 1.75006
641 1 55.5382 36.6337 1.74974
643 1 58.895 35.5229 1.74916
644 1 57.7719 37.7428 1.74969
647 1 61.1304 36.6323 1.74879
648 1 64.4575 35.5028 1.74793
649 1 63.366 37.7432 1.74821
652 1 66.6005 36.6432 1.74733
653 1 68.8585 36.6381 1.74626
11740 1 71.001 35.4961 1.74639
11741 1 72.0931 37.7356 1.74578
11743 1 76.5634 35.5129 1.74625
11744 1 74.3285 36.6235 1.746
11746 1 77.6877 37.7323 1.74609
11748 1 79.9208 36.6225 1.74637
11749 1 82.1536 35.513 1.74653
11751 1 85.5115 36.6219 1.74666
11752 1 83.2802 37.7309 1.74663
11754 1 87.7422 35.5129 1.74665
11756 1 88.8691 37.7311 1.74674
11757 1 91.0976 36.6227 1.74667
11759 1 93.3258 35.5138 1.74664
11760 1 94.4498 37.7343 1.74667
11762 1 96.6764 36.6259 1.74665
11764 1 98.9032 35.517 1.74667
11765 1 100.023 37.7399 1.74668
11768 1 102.249 36.6311 1.74673
11769 1 104.476 35.5221 1.74679
11770 1 105.593 37.7466 1.74681
11773 1 107.819 36.6375 1.74689
11775 1 110.045 35.5282 1.74698
11776 1 111.16 37.7536 1.74701
11778 1 113.387 36.6441 1.7471
11779 1 115.614 35.5346 1.74719
11781 1 116.728 37.7603 1.74722
11783 1 121.182 35.5407 1.7474
11784 1 118.955 36.6505 1.74731
11787 1 122.295 37.7666 1.74744
11786 1 124.522 36.6568 1.74752
11789 1 126.749 35.5474 1.74761
11791 1 130.095 36.6597 1.74773
11792 1 127.865 37.7715 1.74765
11794 1 132.344 35.5586 1.74781
11795 1 133.314 37.7591 1.74783
654 1 1.01909 39.9976 1.74799
656 1 4.27889 38.9042 1.74821
660 1 6.48773 40.0038 1.74829
663 1 9.82166 38.8851 1.74841
666 1 12.0496 39.9958 1.7485
668 1 15.3903 38.8806 1.74862
669 1 17.6175 39.9909 1.7487
670 1 20.9577 38.8753 1.74881
672 1 23.1845 39.9854 1.74889
673 1 26.5247 38.8696 1.74899
675 1 28.7509 39.9794 1.74907
676 1 32.092 38.8637 1.74918
678 1 34.3176 39.9729 1.74928
679 1 37.6613 38.8579 1.74942
681 1 39.8868 39.9665 1.74958
682 1 43.236 38.8534 1.74975
685 1 45.4627 39.9613 1.75004
689 1 48.8196 38.8512 1.75015
692 1 51.0495 39.9592 1.75052
694 1 54.4121 38.8517 1.75028
695 1 56.6456 39.9611 1.75051
699 1 60.0053 38.852 1.74951
700 1 62.2358 39.9606 1.74911
703 1 65.6239 38.8433 1.74727
706 1 67.7296 39.9638 1.74653
11797 1 69.8348 38.8374 1.74571
11799 1 73.225 39.9516 1.74521
11802 1 75.455 38.8423 1.74568
11804 1 78.8155 39.9499 1.74624
11807 1 81.0482 38.8401 1.74651
11810 1 84.4113 39.9471 1.74688
11812 1 86.6403 38.8392 1.74681
11815 1 89.9972 39.9498 1.74686
11818 1 92.2234 38.8423 1.74674
11820 1 95.5724 39.9564 1.74669
11823 1 97.7976 38.8484 1.74666
11825 1 103.367 38.8556 1.74674
11826 1 101.141 39.9643 1.74668
11829 1 106.708 39.9722 1.74682
11831 1 108.934 38.8629 1.74692
11834 1 112.274 39.9795 1.74704
11836 1 114.501 38.8699 1.74713
11839 1 117.841 39.9863 1.74726
11842 1 120.068 38.8765 1.74735
11844 1 123.409 39.9924 1.74748
11847 1 125.637 38.8821 1.74756
11850 1 128.971 40.0015 1.74769
11852 1 131.18 38.9024 1.74778
708 1 2.145 43.3226 1.74815
657 1 3.11472 41.1221 1.74817
710 1 5.36448 42.2236 1.74825
661 1 8.71067 41.1119 1.74838
713 1 7.594 43.3358 1.74833
715 1 10.9372 42.2218 1.74846
667 1 14.2772 41.1063 1.74858
718 1 13.1646 43.3321 1.74854
719 1 16.5048 42.2167 1.74866
671 1 19.8447 41.1012 1.74878
720 1 18.7323 43.3271 1.74874
721 1 22.0718 42.2114 1.74886
674 1 25.4111 41.0954 1.74896
722 1 24.2988 43.3217 1.74893
723 1 27.6376 42.2054 1.74904
677 1 30.9768 41.089 1.74916
724 1 29.8638 43.3153 1.74913
725 1 33.2024 42.1984 1.74925
726 1 35.4276 43.3076 1.74938
680 1 36.5428 41.0819 1.74941
727 1 38.7675 42.1903 1.74958
728 1 40.9916 43.2982 1.74983
684 1 42.1119 41.0745 1.74982
729 1 44.3364 42.1817 1.75016
731 1 46.5603 43.2881 1.75067
688 1 47.6894 41.0686 1.75045
734 1 49.916 42.1753 1.75103
737 1 53.2801 41.0673 1.75102
738 1 52.1425 43.2815 1.75186
740 1 55.5114 42.1758 1.75165
743 1 58.8802 41.0718 1.75067
744 1 57.7436 43.2854 1.75239
747 1 61.1164 42.1842 1.75065
749 1 64.4531 41.0619 1.74848
750 1 63.3531 43.2995 1.75014
753 1 66.5996 42.2054 1.74788
755 1 68.8617 42.1973 1.74588
11856 1 71.0081 41.0538 1.74496
11857 1 72.109 43.2894 1.74423
11859 1 76.5817 41.061 1.74576
11860 1 74.3461 42.1739 1.74504
11862 1 77.7211 43.2729 1.74633
11864 1 79.9518 42.1635 1.74677
11865 1 82.1818 41.0551 1.7469
11867 1 85.5458 42.1629 1.74725
11868 1 83.3209 43.2688 1.74744
11870 1 87.7713 41.0566 1.74703
11872 1 88.9006 43.2764 1.74724
11873 1 91.1237 42.1705 1.74696
11875 1 93.3477 41.0638 1.74679
11876 1 94.4677 43.288 1.74678
11878 1 96.6915 42.1806 1.74668
11880 1 98.9161 41.0727 1.74666
11881 1 100.031 43.2989 1.74662
11884 1 102.256 42.1902 1.74667
11885 1 104.482 41.0813 1.74674
11886 1 105.594 43.308 1.74674
11889 1 107.821 42.1986 1.74684
11891 1 110.047 41.0891 1.74694
11892 1 111.159 43.3157 1.74697
11895 1 113.386 42.2059 1.74707
11894 1 115.614 41.0961 1.74717
11897 1 116.726 43.3224 1.74721
11899 1 121.181 41.1024 1.74739
11900 1 118.953 42.2124 1.7473
11903 1 122.293 43.3286 1.74743
11902 1 124.521 42.2187 1.74752
11905 1 126.748 41.1093 1.74761
11907 1 130.094 42.2217 1.74773
11908 1 127.864 43.3334 1.74765
11910 1 132.343 41.1207 1.74781
11911 1 133.313 43.3214 1.74783
756 1 1.01896 45.5598 1.74799
758 1 4.27951 44.4661 1.74821
759 1 3.11526 46.6839 1.74817
761 1 6.48888 45.5655 1.7483
762 1 8.71238 46.6735 1.74838
764 1 9.82323 44.4468 1.74842
766 1 12.0517 45.5576 1.7485
767 1 14.2799 46.6682 1.74859
768 1 15.3924 44.4426 1.74863
769 1 17.6202 45.5531 1.74871
771 1 19.848 46.6637 1.74879
770 1 20.9597 44.4376 1.74882
772 1 23.1871 45.548 1.7489
773 1 26.5256 44.4319 1.74901
774 1 25.4145 46.6586 1.74899
775 1 28.7524 45.5421 1.7491
776 1 32.0898 44.4251 1.74922
777 1 30.979 46.6523 1.74919
778 1 34.3155 45.5347 1.74934
779 1 37.6523 44.4164 1.74954
780 1 36.5409 46.6441 1.74949
781 1 39.8765 45.5247 1.74978
782 1 43.2149 44.4054 1.7502
783 1 42.1 46.6326 1.75013
785 1 45.4371 45.5117 1.75074
786 1 47.6578 46.6172 1.75152
788 1 48.7831 44.3935 1.75142