ITEM: TIMESTEP
4124
ITEM: NUMBER OF ATOMS
2492
ITEM: BOX BOUNDS pp pp pp
-1.7162078476111264e-01 1.2874175178476105e+02
1.6248525577190875e-03 1.3984961147442277e+01
1.3112214741265514e-03 1.6149007778525849e+01
ITEM: ATOMS id type x y z
1 1 1.10234 1.3617 2.07032
2 1 1.69122 2.52693 0.051857
3 1 -0.0557092 0.196361 0.0518571
4 1 2.58117 0.196356 0.051857
5 1 3.46312 1.36161 2.07032
6 1 5.90521 1.36153 2.07032
7 1 4.22211 2.52686 0.051857
8 1 5.06742 0.196278 0.051857
9 1 8.37019 1.36145 2.07032
10 1 6.71147 2.52678 0.051857
11 1 9.18959 2.52671 0.051857
12 1 7.54292 0.196202 0.051857
13 1 10.8413 1.36138 2.07032
14 1 11.6643 2.52663 0.051857
15 1 10.0163 0.196126 0.051857
16 1 12.4895 0.196049 0.051857
17 1 13.3139 1.3613 2.07032
18 1 15.7871 1.36123 2.07032
19 1 14.138 2.52655 0.051857
20 1 14.9626 0.195973 0.051857
21 1 18.2603 1.36115 2.07032
22 1 16.6114 2.52648 0.051857
23 1 17.4359 0.195897 0.051857
24 1 19.0847 2.5264 0.051857
25 1 20.7335 1.36107 2.07032
26 1 21.5579 2.52633 0.051857
27 1 19.9091 0.195821 0.0518571
28 1 22.3823 0.195744 0.0518572
29 1 23.2068 1.361 2.07032
30 1 24.0312 2.52625 0.0518571
31 1 24.8556 0.195668 0.0518574
32 1 25.68 1.36092 2.07032
33 1 28.1533 1.36084 2.07032
34 1 26.5044 2.52617 0.0518572
35 1 27.3288 0.195592 0.0518578
36 1 30.6265 1.36077 2.07032
37 1 28.9777 2.5261 0.0518573
38 1 29.8021 0.195515 0.0518586
39 1 31.4509 2.52602 0.0518576
40 1 33.0998 1.36069 2.07032
41 1 33.9242 2.52594 0.0518582
42 1 32.2753 0.195439 0.0518602
43 1 34.7486 0.195364 0.0518632
44 1 35.573 1.36061 2.07032
45 1 38.0463 1.36054 2.07032
46 1 36.3974 2.52587 0.0518591
47 1 37.2218 0.195291 0.0518693
48 1 40.5196 1.36046 2.07032
49 1 38.8707 2.52579 0.0518609
50 1 39.6951 0.195221 0.0518814
51 1 41.344 2.52572 0.0518641
52 1 42.9931 1.36038 2.07032
53 1 43.8173 2.52565 0.0518699
54 1 42.1684 0.195159 0.0519055
55 1 44.6418 0.195111 0.0519537
56 1 45.4667 1.36029 2.07032
57 1 47.9407 1.36019 2.07032
58 1 46.2908 2.52558 0.0518797
59 1 47.1152 0.195092 0.0520504
60 1 50.4155 1.36003 2.07032
61 1 48.7646 2.52551 0.0518942
62 1 49.5888 0.195135 0.0522443
63 1 51.2389 2.52545 0.0519072
64 1 52.8921 1.35977 2.07032
65 1 52.0627 0.195307 0.052632
66 1 53.7148 2.52538 0.0518783
67 1 54.5369 0.19576 0.0533964
68 1 55.3729 1.35938 2.07032
69 1 56.1942 2.52518 0.0516908
70 1 57.0112 0.196349 0.0540746
71 1 57.8631 1.3573 2.07032
72 1 60.3788 1.3575 2.07032
73 1 58.6811 2.52574 0.0499568
74 1 59.4814 0.201272 0.0625987
75 1 61.1884 2.51299 0.0461816
76 1 61.9736 0.194099 0.041315
1229 1 63.0777 1.35283 2.07032
1230 1 65.6606 2.02689 0.876548
1231 1 68.2563 1.35091 2.07032
1232 1 69.3515 0.202726 0.0670262
1233 1 70.154 2.52047 0.0598199
1234 1 70.9287 1.35404 2.07032
1235 1 73.4302 1.35751 2.07032
1236 1 71.8088 0.194404 0.0521851
1237 1 72.6211 2.52501 0.0526895
1238 1 75.9125 1.35884 2.07032
1239 1 75.0929 2.5252 0.0522642
1240 1 74.2733 0.194665 0.0521981
1241 1 76.7431 0.194702 0.0518843
1242 1 78.3885 1.35955 2.07032
1243 1 79.215 0.194806 0.0518126
1244 1 80.0387 2.52544 0.0519642
1245 1 77.5657 2.52533 0.0520728
1246 1 80.8626 1.35993 2.07032
1247 1 83.336 1.36016 2.07032
1248 1 82.5118 2.52553 0.0519074
1249 1 81.6876 0.194917 0.0518111
1250 1 85.8093 1.36031 2.07032
1251 1 86.6337 0.19511 0.0518364
1252 1 84.1606 0.195018 0.0518241
1253 1 84.9849 2.52562 0.0518797
1254 1 88.2825 1.36042 2.07032
1255 1 89.9313 2.52578 0.051861
1256 1 89.1069 0.195196 0.0518449
1257 1 87.4581 2.5257 0.0518668
1258 1 90.7557 1.36052 2.07032
1259 1 93.229 1.3606 2.07032
1260 1 92.4046 2.52586 0.0518585
1261 1 91.5802 0.195278 0.0518501
1262 1 95.7022 1.36069 2.07032
1263 1 94.0534 0.195357 0.0518532
1264 1 94.8778 2.52594 0.0518576
1265 1 96.5266 0.195436 0.051855
1266 1 98.1755 1.36076 2.07032
1267 1 97.351 2.52602 0.0518572
1268 1 98.9999 0.195513 0.051856
1269 1 100.649 1.36084 2.07032
1270 1 99.8243 2.5261 0.0518571
1271 1 102.298 2.52617 0.0518571
1272 1 101.473 0.19559 0.0518565
1273 1 103.122 1.36092 2.07032
1274 1 105.595 1.361 2.07032
1275 1 104.771 2.52625 0.0518571
1276 1 103.946 0.195667 0.0518568
1277 1 108.068 1.36107 2.07032
1278 1 108.893 0.19582 0.051857
1279 1 107.244 2.52633 0.0518571
1280 1 106.42 0.195744 0.051857
1281 1 110.542 1.36115 2.07032
1282 1 109.717 2.5264 0.0518571
1283 1 112.191 2.52648 0.0518571
1284 1 111.366 0.195896 0.0518571
1285 1 113.015 1.36123 2.07032
1286 1 115.488 1.3613 2.07032
1287 1 114.664 2.52655 0.0518571
1288 1 113.839 0.195973 0.0518571
1289 1 117.961 1.36138 2.07032
1290 1 116.312 0.196049 0.0518571
1291 1 117.138 2.52663 0.0518571
1292 1 118.786 0.196125 0.0518571
1293 1 120.432 1.36145 2.07032
1294 1 119.612 2.52671 0.0518571
1295 1 121.259 0.196202 0.0518571
1296 1 122.09 2.52678 0.0518571
1297 1 122.897 1.36153 2.07032
1298 1 125.339 1.36161 2.07032
1299 1 123.735 0.196278 0.0518571
1300 1 124.58 2.52686 0.0518571
1301 1 127.7 1.3617 2.07032
1302 1 126.221 0.196356 0.0518571
1303 1 127.111 2.52693 0.0518571
77 1 -0.0557092 3.69219 2.07032
78 1 2.58117 3.69219 2.07032
79 1 1.69122 6.02276 2.07032
80 1 1.10234 4.85753 0.051857
81 1 5.06742 3.69211 2.07032
82 1 4.22211 6.02269 2.07032
83 1 3.46312 4.85744 0.051857
84 1 5.90521 4.85737 0.051857
85 1 7.54292 3.69204 2.07032
86 1 6.71147 6.02262 2.07032
87 1 9.18959 6.02254 2.07032
88 1 8.37019 4.85729 0.051857
89 1 10.0163 3.69196 2.07032
90 1 11.6643 6.02246 2.07032
91 1 12.4895 3.69188 2.07032
92 1 10.8413 4.85721 0.051857
93 1 14.9626 3.69181 2.07032
94 1 14.138 6.02239 2.07032
95 1 13.3139 4.85714 0.051857
96 1 15.7871 4.85706 0.051857
97 1 17.4359 3.69173 2.07032
98 1 16.6114 6.02231 2.07032
99 1 19.0847 6.02224 2.07032
100 1 18.2603 4.85698 0.0518569
101 1 19.9091 3.69165 2.07032
102 1 21.5579 6.02216 2.07032
103 1 22.3823 3.69158 2.07032
104 1 20.7335 4.85691 0.0518569
105 1 24.8556 3.6915 2.07032
106 1 24.0312 6.02208 2.07032
107 1 23.2068 4.85683 0.0518568
108 1 27.3288 3.69142 2.07032
109 1 26.5044 6.02201 2.07032
110 1 25.68 4.85675 0.0518567
111 1 28.1532 4.85668 0.0518564
112 1 29.8021 3.69135 2.07032
113 1 28.9777 6.02193 2.07032
114 1 31.4509 6.02185 2.07032
115 1 30.6265 4.8566 0.0518558
116 1 32.2753 3.69127 2.07032
117 1 33.9242 6.02177 2.07032
118 1 34.7486 3.69119 2.07032
119 1 33.0997 4.85652 0.0518547
120 1 37.2219 3.69111 2.07032
121 1 36.3974 6.02169 2.07032
122 1 35.573 4.85644 0.0518526
123 1 38.0462 4.85637 0.0518486
124 1 39.6951 3.69102 2.07032
125 1 38.8706 6.0216 2.07032
126 1 41.3439 6.0215 2.07032
127 1 40.5195 4.85628 0.0518412
128 1 42.1685 3.69093 2.07032
129 1 43.8171 6.02137 2.07032
130 1 44.6419 3.6908 2.07032
131 1 42.9927 4.85619 0.0518279
132 1 46.2904 6.02118 2.07032
133 1 47.1154 3.6906 2.07032
134 1 45.4659 4.85609 0.0518048
135 1 47.9391 4.85594 0.0517666
136 1 49.5891 3.69026 2.07032
137 1 48.7636 6.02086 2.07032
138 1 51.2367 6.02028 2.07032
139 1 50.4121 4.8557 0.0517092
140 1 52.0631 3.68958 2.07032
141 1 54.5372 3.68817 2.07032
142 1 53.7096 6.01915 2.07032
143 1 52.885 4.85521 0.0516353
144 1 56.1809 6.01717 2.07032
145 1 57.0101 3.68546 2.07032
146 1 55.3583 4.85405 0.051612
147 1 57.8345 4.85244 0.0526621
148 1 59.4748 3.67473 2.07032
149 1 58.6459 6.01915 2.07032
150 1 60.3227 4.83331 0.0423804
151 1 61.055 5.91548 2.07032
152 1 61.932 3.59967 2.07032
153 1 62.9825 4.94126 0.244604
1304 1 63.1483 6.92347 2.07032
1305 1 64.3272 3.73896 2.07032
1306 1 65.2154 5.92188 2.07032
1307 1 65.8249 4.65718 0.0484486
1308 1 66.9372 3.74201 2.07032
1309 1 67.6192 6.04243 2.07032
1310 1 69.3345 3.65886 2.07032
1311 1 70.1197 6.01351 2.07032
1312 1 68.4738 4.87141 0.0775377
1313 1 71.7991 3.68505 2.07032
1314 1 72.6062 6.02049 2.07032
1315 1 70.9645 4.85486 0.0584866
1316 1 73.4422 4.85609 0.0551431
1317 1 74.2685 3.68796 2.07032
1318 1 75.086 6.02079 2.07032
1319 1 76.7408 3.68959 2.07032
1320 1 75.9162 4.85607 0.0532796
1321 1 77.5624 6.02109 2.07032
1322 1 79.2139 3.6903 2.07032
1323 1 80.0371 6.02127 2.07032
1324 1 78.3896 4.85608 0.052504
1325 1 81.6871 3.69063 2.07032
1326 1 82.511 6.02138 2.07032
1327 1 80.8628 4.85612 0.0521576
1328 1 83.336 4.85617 0.0519988
1329 1 84.1604 3.69081 2.07032
1330 1 86.6337 3.69093 2.07032
1331 1 84.9845 6.02147 2.07032
1332 1 85.8092 4.85623 0.0519246
1333 1 87.4579 6.02155 2.07032
1334 1 89.1069 3.69103 2.07032
1335 1 89.9312 6.02163 2.07032
1336 1 88.2825 4.8563 0.0518895
1337 1 91.5801 3.69111 2.07032
1338 1 92.4045 6.0217 2.07032
1339 1 90.7557 4.85637 0.0518728
1340 1 93.229 4.85645 0.0518647
1341 1 94.0534 3.69119 2.07032
1342 1 94.8778 6.02178 2.07032
1343 1 95.7022 4.85652 0.0518608
1344 1 96.5266 3.69127 2.07032
1345 1 97.351 6.02185 2.07032
1346 1 98.9999 3.69135 2.07032
1347 1 98.1755 4.8566 0.0518589
1348 1 99.8243 6.02193 2.07032
1349 1 101.473 3.69142 2.07032
1350 1 102.298 6.02201 2.07032
1351 1 100.649 4.85668 0.051858
1352 1 103.946 3.6915 2.07032
1353 1 104.771 6.02208 2.07032
1354 1 103.122 4.85675 0.0518576
1355 1 105.595 4.85683 0.0518573
1356 1 106.42 3.69158 2.07032
1357 1 108.893 3.69165 2.07032
1358 1 107.244 6.02216 2.07032
1359 1 108.068 4.85691 0.0518572
1360 1 109.717 6.02224 2.07032
1361 1 111.366 3.69173 2.07032
1362 1 112.191 6.02231 2.07032
1363 1 110.542 4.85698 0.0518572
1364 1 113.839 3.69181 2.07032
1365 1 114.664 6.02239 2.07032
1366 1 113.015 4.85706 0.0518572
1367 1 115.488 4.85714 0.0518571
1368 1 116.312 3.69188 2.07032
1369 1 118.786 3.69196 2.07032
1370 1 117.138 6.02246 2.07032
1371 1 117.961 4.85721 0.0518571
1372 1 121.259 3.69204 2.07032
1373 1 119.612 6.02254 2.07032
1374 1 122.09 6.02262 2.07032
1375 1 120.432 4.85729 0.0518571
1376 1 123.735 3.69211 2.07032
1377 1 124.58 6.02269 2.07032
1378 1 122.897 4.85737 0.0518571
1379 1 125.339 4.85744 0.0518571
1380 1 126.221 3.69219 2.07032
1381 1 127.111 6.02276 2.07032
1382 1 127.7 4.85753 0.0518571
154 1 1.10234 8.35337 2.07032
155 1 -0.0557092 7.18803 0.0518571
156 1 2.58117 7.18802 0.051857
157 1 1.69122 9.5186 0.051857
158 1 3.46312 8.35328 2.07032
159 1 5.90521 8.3532 2.07032
160 1 5.06742 7.18795 0.051857
161 1 4.22211 9.51853 0.051857
162 1 8.37019 8.35312 2.07032
163 1 7.54292 7.18787 0.051857
164 1 6.71147 9.51845 0.051857
165 1 9.18959 9.51838 0.051857
166 1 10.8413 8.35305 2.07032
167 1 10.0163 7.18779 0.051857
168 1 11.6643 9.5183 0.051857
169 1 12.4895 7.18772 0.051857
170 1 13.3139 8.35297 2.07032
171 1 15.7871 8.35289 2.07032
172 1 14.9626 7.18764 0.0518569
173 1 14.138 9.51822 0.051857
174 1 18.2603 8.35282 2.07032
175 1 17.4359 7.18756 0.0518569
176 1 16.6114 9.51815 0.051857
177 1 19.0847 9.51807 0.051857
178 1 20.7335 8.35274 2.07032
179 1 19.9091 7.18749 0.0518569
180 1 21.5579 9.51799 0.0518569
181 1 22.3823 7.18741 0.0518568
182 1 23.2068 8.35266 2.07032
183 1 24.8556 7.18734 0.0518567
184 1 24.0312 9.51792 0.0518569
185 1 25.68 8.35259 2.07032
186 1 28.1532 8.35251 2.07032
187 1 27.3288 7.18726 0.0518563
188 1 26.5044 9.51784 0.0518569
189 1 30.6265 8.35243 2.07032
190 1 29.8021 7.18718 0.0518558
191 1 28.9777 9.51776 0.0518569
192 1 31.4509 9.51769 0.0518571
193 1 33.0997 8.35235 2.07032
194 1 32.2753 7.1871 0.0518548
195 1 33.9241 9.51761 0.0518574
196 1 34.7486 7.18703 0.051853
197 1 35.573 8.35227 2.07032
198 1 38.0462 8.35219 2.07032
199 1 37.2218 7.18695 0.05185
200 1 36.3974 9.51753 0.0518584
201 1 40.5194 8.35209 2.07032
202 1 39.695 7.18686 0.0518447
203 1 38.8706 9.51745 0.0518608
204 1 41.3438 9.51737 0.0518666
205 1 42.9927 8.35198 2.07032
206 1 42.1682 7.18678 0.0518362
207 1 43.817 9.51729 0.0518795
208 1 44.6413 7.18669 0.051824
209 1 45.466 8.35183 2.07032
210 1 47.9394 8.3516 2.07032
211 1 46.2902 9.5172 0.0519073
212 1 47.1143 7.18658 0.0518109
213 1 50.4134 8.35121 2.07032
214 1 49.587 7.18647 0.0518124
215 1 48.7633 9.51711 0.0519641
216 1 51.2363 9.517 0.0520727
217 1 52.8895 8.3505 2.07032
218 1 52.0588 7.18637 0.0518842
219 1 54.5287 7.18633 0.052198
220 1 53.7091 9.51687 0.0522641
221 1 55.3718 8.34917 2.07032
222 1 56.1808 9.51667 0.0526894
223 1 56.9932 7.18607 0.052185
224 1 57.8733 8.34571 2.07032
225 1 60.5456 8.34258 2.07032
226 1 59.4505 7.19439 0.0670262
227 1 58.6479 9.51214 0.0598199
1383 1 63.1414 9.01856 0.876548
1384 1 65.7242 8.3445 2.07032
1385 1 66.8284 7.18577 0.041315
1386 1 68.4231 8.34917 2.07032
1387 1 69.3206 7.19294 0.0625988
1388 1 67.6135 9.50466 0.0461817
1389 1 70.1209 9.51741 0.0499568
1390 1 70.9388 8.34896 2.07032
1391 1 73.429 8.35105 2.07032
1392 1 71.7908 7.18802 0.0540747
1393 1 72.6078 9.51685 0.0516909
1394 1 75.9098 8.35144 2.07032
1395 1 74.265 7.18743 0.0533965
1396 1 76.7392 7.18697 0.0526321
1397 1 75.0872 9.51705 0.0518784
1398 1 78.3865 8.3517 2.07032
1399 1 79.2131 7.1868 0.0522444
1400 1 80.0374 9.51718 0.0518943
1401 1 77.563 9.51712 0.0519073
1402 1 80.8613 8.35185 2.07032
1403 1 83.3353 8.35196 2.07032
1404 1 82.5111 9.51725 0.0518798
1405 1 81.6867 7.18676 0.0520505
1406 1 85.8089 8.35205 2.07032
1407 1 86.6335 7.18683 0.0519057
1408 1 84.1602 7.18678 0.0519539
1409 1 84.9846 9.51732 0.05187
1410 1 88.2823 8.35213 2.07032
1411 1 89.1068 7.18689 0.0518816
1412 1 89.9313 9.51746 0.051861
1413 1 87.458 9.51739 0.0518642
1414 1 90.7556 8.35221 2.07032
1415 1 93.2289 8.35228 2.07032
1416 1 91.5801 7.18696 0.0518695
1417 1 92.4045 9.51754 0.0518593
1418 1 95.7022 8.35236 2.07032
1419 1 94.0534 7.18703 0.0518634
1420 1 94.8778 9.51761 0.0518583
1421 1 96.5266 7.18711 0.0518603
1422 1 98.1755 8.35244 2.07032
1423 1 97.351 9.51769 0.0518578
1424 1 98.9999 7.18718 0.0518588
1425 1 100.649 8.35251 2.07032
1426 1 99.8243 9.51776 0.0518575
1427 1 101.473 7.18726 0.0518579
1428 1 102.298 9.51784 0.0518573
1429 1 103.122 8.35259 2.07032
1430 1 105.595 8.35266 2.07032
1431 1 103.946 7.18734 0.0518575
1432 1 104.771 9.51792 0.0518572
1433 1 108.068 8.35274 2.07032
1434 1 108.893 7.18749 0.0518572
1435 1 107.244 9.51799 0.0518572
1436 1 106.42 7.18741 0.0518573
1437 1 110.542 8.35282 2.07032
1438 1 109.717 9.51807 0.0518572
1439 1 111.366 7.18756 0.0518572
1440 1 112.191 9.51815 0.0518571
1441 1 113.015 8.35289 2.07032
1442 1 115.488 8.35297 2.07032
1443 1 113.839 7.18764 0.0518572
1444 1 114.664 9.51822 0.0518571
1445 1 117.961 8.35305 2.07032
1446 1 116.312 7.18772 0.0518571
1447 1 118.786 7.18779 0.0518571
1448 1 117.138 9.5183 0.0518571
1449 1 120.432 8.35312 2.07032
1450 1 121.259 7.18787 0.0518571
1451 1 119.612 9.51838 0.0518571
1452 1 122.09 9.51845 0.0518571
1453 1 122.897 8.3532 2.07032
1454 1 125.339 8.35328 2.07032
1455 1 123.735 7.18795 0.0518571
1456 1 124.58 9.51853 0.0518571
1457 1 127.7 8.35337 2.07032
1458 1 126.221 7.18802 0.0518571
1459 1 127.111 9.5186 0.0518571
228 1 -0.0557093 10.6839 2.07032
229 1 2.58117 10.6839 2.07032
230 1 1.69122 13.0144 2.07032
231 1 1.10234 11.8492 0.051857
232 1 5.06742 10.6838 2.07032
233 1 4.22211 13.0144 2.07032
234 1 3.46312 11.8491 0.051857
235 1 5.90521 11.849 0.051857
236 1 7.54292 10.6837 2.07032
237 1 6.71147 13.0143 2.07032
238 1 9.18959 13.0142 2.07032
239 1 8.37019 11.849 0.051857
240 1 10.0163 10.6836 2.07032
241 1 11.6643 13.0141 2.07032
242 1 12.4895 10.6836 2.07032
243 1 10.8413 11.8489 0.051857
244 1 14.9626 10.6835 2.07032
245 1 14.138 13.0141 2.07032
246 1 13.3139 11.8488 0.051857
247 1 15.7871 11.8487 0.051857
248 1 17.4359 10.6834 2.07032
249 1 16.6114 13.014 2.07032
250 1 19.0847 13.0139 2.07032
251 1 18.2603 11.8487 0.051857
252 1 19.9091 10.6833 2.07032
253 1 21.5579 13.0138 2.07032
254 1 22.3823 10.6832 2.07032
255 1 20.7335 11.8486 0.0518571
256 1 24.8556 10.6832 2.07032
257 1 24.0312 13.0138 2.07032
258 1 23.2068 11.8485 0.0518572
259 1 27.3288 10.6831 2.07032
260 1 26.5044 13.0137 2.07032
261 1 25.68 11.8484 0.0518574
262 1 28.1532 11.8483 0.0518578
263 1 29.8021 10.683 2.07032
264 1 28.9777 13.0136 2.07032
265 1 31.4509 13.0135 2.07032
266 1 30.6265 11.8483 0.0518588
267 1 32.2753 10.6829 2.07032
268 1 33.9242 13.0134 2.07032
269 1 34.7486 10.6829 2.07032
270 1 33.0997 11.8482 0.0518606
271 1 37.2218 10.6828 2.07032
272 1 36.3974 13.0134 2.07032
273 1 35.573 11.8481 0.0518645
274 1 38.0462 11.848 0.0518726
275 1 39.6951 10.6827 2.07032
276 1 38.8707 13.0133 2.07032
277 1 41.344 13.0132 2.07032
278 1 40.5195 11.848 0.0518894
279 1 42.1683 10.6826 2.07032
280 1 43.8174 13.0131 2.07032
281 1 44.6416 10.6825 2.07032
282 1 42.9927 11.8479 0.0519245
283 1 46.291 13.013 2.07032
284 1 47.1148 10.6823 2.07032
285 1 45.466 11.8478 0.0519987
286 1 47.9392 11.8478 0.0521575
287 1 49.5881 10.682 2.07032
288 1 48.7649 13.0129 2.07032
289 1 51.2396 13.0128 2.07032
290 1 50.4124 11.8477 0.0525039
291 1 52.0612 10.6813 2.07032
292 1 54.5335 10.6796 2.07032
293 1 53.7159 13.0125 2.07032
294 1 52.8857 11.8477 0.0532795
295 1 56.1958 13.0122 2.07032
296 1 57.0028 10.6767 2.07032
297 1 55.3598 11.8478 0.0551431
298 1 57.8374 11.8465 0.0584866
299 1 59.4675 10.6505 2.07032
300 1 58.6822 13.0052 2.07032
301 1 60.3281 11.8631 0.0775377
302 1 61.1828 13.0341 2.07032
303 1 61.8647 10.7337 2.07032
304 1 62.9771 11.6488 0.0484486
1460 1 63.5865 12.9135 2.07032
1461 1 64.4748 10.7306 2.07032
1462 1 65.6537 13.9151 2.07032
1463 1 65.8195 11.9329 0.244604
1464 1 66.87 10.5913 2.07032
1465 1 67.747 12.9071 2.07032
1466 1 69.3271 10.6664 2.07032
1467 1 70.156 13.0108 2.07032
1468 1 68.4793 11.825 0.0423805
1469 1 71.7918 10.6771 2.07032
1470 1 72.621 13.0088 2.07032
1471 1 70.9675 11.8441 0.0526621
1472 1 73.4437 11.8457 0.0516121
1473 1 74.2648 10.6798 2.07032
1474 1 75.0924 13.0108 2.07032
1475 1 76.7389 10.6812 2.07032
1476 1 75.9169 11.8469 0.0516354
1477 1 77.5652 13.0119 2.07032
1478 1 79.2129 10.6819 2.07032
1479 1 80.0384 13.0125 2.07032
1480 1 78.3899 11.8474 0.0517093
1481 1 81.6866 10.6823 2.07032
1482 1 82.5116 13.0128 2.07032
1483 1 80.8629 11.8476 0.0517668
1484 1 83.336 11.8478 0.0518049
1485 1 84.1601 10.6825 2.07032
1486 1 86.6335 10.6826 2.07032
1487 1 84.9848 13.013 2.07032
1488 1 85.8092 11.8479 0.051828
1489 1 87.4581 13.0132 2.07032
1490 1 89.1068 10.6827 2.07032
1491 1 89.9313 13.0133 2.07032
1492 1 88.2825 11.848 0.0518414
1493 1 91.5801 10.6828 2.07032
1494 1 92.4046 13.0134 2.07032
1495 1 90.7557 11.848 0.0518487
1496 1 93.229 11.8481 0.0518527
1497 1 94.0534 10.6829 2.07032
1498 1 94.8778 13.0134 2.07032
1499 1 95.7022 11.8482 0.0518549
1500 1 96.5266 10.6829 2.07032
1501 1 97.351 13.0135 2.07032
1502 1 98.9999 10.683 2.07032
1503 1 98.1755 11.8483 0.051856
1504 1 99.8243 13.0136 2.07032
1505 1 101.473 10.6831 2.07032
1506 1 102.298 13.0137 2.07032
1507 1 100.649 11.8483 0.0518565
1508 1 103.946 10.6832 2.07032
1509 1 104.771 13.0138 2.07032
1510 1 103.122 11.8484 0.0518568
1511 1 105.595 11.8485 0.051857
1512 1 106.42 10.6832 2.07032
1513 1 108.893 10.6833 2.07032
1514 1 107.244 13.0138 2.07032
1515 1 108.068 11.8486 0.0518571
1516 1 109.717 13.0139 2.07032
1517 1 111.366 10.6834 2.07032
1518 1 112.191 13.014 2.07032
1519 1 110.542 11.8487 0.0518571
1520 1 113.839 10.6835 2.07032
1521 1 114.664 13.0141 2.07032
1522 1 113.015 11.8487 0.0518571
1523 1 115.488 11.8488 0.0518571
1524 1 116.312 10.6836 2.07032
1525 1 118.786 10.6836 2.07032
1526 1 117.138 13.0141 2.07032
1527 1 117.961 11.8489 0.0518571
1528 1 121.259 10.6837 2.07032
1529 1 119.612 13.0142 2.07032
1530 1 122.09 13.0143 2.07032
1531 1 120.432 11.849 0.0518571
1532 1 124.58 13.0144 2.07032
1533 1 123.735 10.6838 2.07032
1534 1 122.897 11.849 0.0518571
1535 1 125.339 11.8491 0.0518571
1536 1 127.111 13.0144 2.07032
1537 1 126.221 10.6839 2.07032
1538 1 127.7 11.8492 0.0518571
305 1 1.10234 1.3617 6.10724
306 1 1.69122 2.52693 4.08878
307 1 -0.0557092 0.196361 4.08878
308 1 2.58117 0.196356 4.08878
309 1 4.22211 2.52686 4.08878
310 1 3.46312 1.36161 6.10724
311 1 5.90521 1.36153 6.10724
312 1 5.06742 0.196278 4.08878
313 1 6.71147 2.52678 4.08878
314 1 9.18959 2.52671 4.08878
315 1 8.37019 1.36145 6.10724
316 1 7.54292 0.196202 4.08878
317 1 10.8413 1.36138 6.10724
318 1 11.6643 2.52663 4.08878
319 1 10.0163 0.196126 4.08878
320 1 12.4895 0.196049 4.08878
321 1 14.138 2.52655 4.08878
322 1 13.3139 1.3613 6.10724
323 1 14.9626 0.195973 4.08878
324 1 15.7871 1.36123 6.10724
325 1 16.6114 2.52648 4.08878
326 1 18.2603 1.36115 6.10724
327 1 17.4359 0.195897 4.08878
328 1 19.0847 2.5264 4.08878
329 1 20.7335 1.36107 6.10724
330 1 21.5579 2.52633 4.08878
331 1 19.9091 0.195821 4.08878
332 1 22.3823 0.195744 4.08878
333 1 24.0312 2.52625 4.08878
334 1 23.2068 1.361 6.10724
335 1 24.8556 0.195668 4.08878
336 1 25.68 1.36092 6.10724
337 1 26.5044 2.52617 4.08878
338 1 27.3288 0.195592 4.08878
339 1 28.1532 1.36084 6.10724
340 1 28.9777 2.5261 4.08878
341 1 30.6265 1.36077 6.10724
342 1 29.8021 0.195515 4.08878
343 1 31.4509 2.52602 4.08878
344 1 33.9242 2.52594 4.08878
345 1 33.0997 1.36069 6.10724
346 1 32.2753 0.195439 4.08878
347 1 34.7486 0.195364 4.08877
348 1 35.573 1.36062 6.10724
349 1 36.3974 2.52587 4.08878
350 1 37.2218 0.195291 4.08877
351 1 38.0462 1.36055 6.10723
352 1 38.8707 2.52579 4.08878
353 1 40.5194 1.36048 6.10722
354 1 39.6951 0.195221 4.08876
355 1 41.344 2.52572 4.08877
356 1 43.8173 2.52565 4.08877
357 1 42.9926 1.36043 6.10721
358 1 42.1684 0.195159 4.08873
359 1 44.6418 0.195111 4.08868
360 1 45.4658 1.36041 6.10718
361 1 46.2908 2.52558 4.08876
362 1 47.1152 0.195092 4.08859
363 1 47.9389 1.36048 6.10713
364 1 48.7646 2.52551 4.08874
365 1 49.5888 0.195135 4.08839
366 1 50.4118 1.36073 6.10702
367 1 51.2389 2.52545 4.08873
368 1 52.8845 1.3614 6.1068
369 1 52.0627 0.195307 4.08801
370 1 53.7148 2.52538 4.08876
371 1 54.5369 0.19576 4.08724
372 1 55.3576 1.36314 6.10632
373 1 56.1942 2.52518 4.08895
374 1 57.0112 0.196349 4.08656
375 1 57.8337 1.3687 6.10661
376 1 58.6811 2.52574 4.09068
377 1 59.4814 0.201272 4.07804
378 1 60.3235 1.37261 6.08691
379 1 61.1884 2.51299 4.09446
380 1 61.9736 0.194099 4.09932
381 1 62.9765 1.49483 6.29093
1539 1 63.6246 2.57388 4.2042
1540 1 64.3629 0.132596 4.18778
1541 1 65.6606 2.02689 3.26409
1542 1 65.8254 1.49483 5.92355
1543 1 66.9658 0.152888 4.14744
1544 1 67.7343 2.57417 4.17352
1545 1 68.4784 1.37261 6.12758
1546 1 70.154 2.52047 4.08082
1547 1 69.3515 0.202726 4.07361
1548 1 70.9682 1.3687 6.10788
1549 1 71.8088 0.194404 4.08845
1550 1 72.6211 2.52501 4.08795
1551 1 73.4444 1.36314 6.10817
1552 1 75.0929 2.5252 4.08837
1553 1 74.2733 0.194665 4.08844
1554 1 75.9174 1.3614 6.10768
1555 1 76.7431 0.194702 4.08875
1556 1 77.5657 2.52533 4.08857
1557 1 78.3902 1.36073 6.10747
1558 1 80.0387 2.52544 4.08867
1559 1 79.215 0.194806 4.08883
1560 1 80.8631 1.36048 6.10736
1561 1 82.5118 2.52553 4.08873
1562 1 83.3362 1.36041 6.10731
1563 1 81.6876 0.194917 4.08883
1564 1 84.1606 0.195018 4.08881
1565 1 84.9849 2.52562 4.08876
1566 1 85.8093 1.36043 6.10728
1567 1 86.6337 0.19511 4.0888
1568 1 87.4581 2.5257 4.08877
1569 1 89.9313 2.52578 4.08878
1570 1 88.2825 1.36048 6.10726
1571 1 89.1069 0.195196 4.08879
1572 1 90.7557 1.36055 6.10725
1573 1 92.4046 2.52586 4.08878
1574 1 91.5802 0.195278 4.08879
1575 1 93.229 1.36062 6.10725
1576 1 94.0534 0.195357 4.08879
1577 1 94.8778 2.52594 4.08878
1578 1 95.7022 1.36069 6.10725
1579 1 96.5266 0.195436 4.08878
1580 1 97.351 2.52602 4.08878
1581 1 98.1755 1.36077 6.10724
1582 1 98.9999 0.195513 4.08878
1583 1 99.8243 2.5261 4.08878
1584 1 102.298 2.52617 4.08878
1585 1 100.649 1.36084 6.10724
1586 1 101.473 0.19559 4.08878
1587 1 103.122 1.36092 6.10724
1588 1 104.771 2.52625 4.08878
1589 1 105.595 1.361 6.10724
1590 1 103.946 0.195667 4.08878
1591 1 106.42 0.195744 4.08878
1592 1 107.244 2.52633 4.08878
1593 1 108.068 1.36107 6.10724
1594 1 108.893 0.19582 4.08878
1595 1 109.717 2.5264 4.08878
1596 1 112.191 2.52648 4.08878
1597 1 110.542 1.36115 6.10724
1598 1 111.366 0.195896 4.08878
1599 1 113.015 1.36123 6.10724
1600 1 114.664 2.52655 4.08878
1601 1 115.488 1.3613 6.10724
1602 1 113.839 0.195973 4.08878
1603 1 116.312 0.196049 4.08878
1604 1 117.138 2.52663 4.08878
1605 1 117.961 1.36138 6.10724
1606 1 118.786 0.196125 4.08878
1607 1 119.612 2.52671 4.08878
1608 1 120.432 1.36145 6.10724
1609 1 121.259 0.196202 4.08878
1610 1 122.09 2.52678 4.08878
1611 1 122.897 1.36153 6.10724
1612 1 123.735 0.196278 4.08878
1613 1 125.339 1.36161 6.10724
1614 1 124.58 2.52686 4.08878
1615 1 127.7 1.3617 6.10724
1616 1 126.221 0.196356 4.08878
1617 1 127.111 2.52693 4.08878
382 1 -0.0557092 3.69219 6.10724
383 1 2.58117 3.69219 6.10724
384 1 1.10234 4.85753 4.08878
385 1 1.69122 6.02276 6.10724
386 1 5.06742 3.69211 6.10724
387 1 4.22211 6.02269 6.10724
388 1 3.46312 4.85744 4.08878
389 1 5.90521 4.85737 4.08878
390 1 7.54292 3.69204 6.10724
391 1 6.71147 6.02262 6.10724
392 1 9.18959 6.02254 6.10724
393 1 8.37019 4.85729 4.08878
394 1 10.0163 3.69196 6.10724
395 1 10.8413 4.85721 4.08878
396 1 11.6643 6.02246 6.10724
397 1 12.4895 3.69188 6.10724
398 1 14.9626 3.69181 6.10724
399 1 14.138 6.02239 6.10724
400 1 13.3139 4.85714 4.08878
401 1 15.7871 4.85706 4.08878
402 1 17.4359 3.69173 6.10724
403 1 16.6114 6.02231 6.10724
404 1 18.2603 4.85698 4.08878
405 1 19.0847 6.02224 6.10724
406 1 19.9091 3.69165 6.10724
407 1 20.7335 4.85691 4.08878
408 1 21.5579 6.02216 6.10724
409 1 22.3823 3.69158 6.10724
410 1 24.8556 3.6915 6.10724
411 1 24.0312 6.02208 6.10724
412 1 23.2068 4.85683 4.08878
413 1 25.68 4.85675 4.08878
414 1 27.3288 3.69143 6.10724
415 1 26.5044 6.02201 6.10724
416 1 28.1532 4.85668 4.08878
417 1 29.8021 3.69135 6.10724
418 1 28.9777 6.02193 6.10724
419 1 30.6265 4.8566 4.08878
420 1 31.4509 6.02185 6.10725
421 1 32.2753 3.69127 6.10724
422 1 33.9242 6.02178 6.10725
423 1 33.0997 4.85652 4.08878
424 1 34.7486 3.6912 6.10725
425 1 37.2218 3.69112 6.10725
426 1 35.573 4.85644 4.08879
427 1 36.3974 6.0217 6.10726
428 1 38.0462 4.85637 4.08879
429 1 39.695 3.69105 6.10726
430 1 38.8706 6.02163 6.10727
431 1 40.5195 4.85628 4.0888
432 1 41.3438 6.02157 6.10729
433 1 42.1682 3.69099 6.10728
434 1 43.817 6.02152 6.10734
435 1 42.9927 4.85619 4.08881
436 1 44.6414 3.69095 6.10731
437 1 45.4659 4.85609 4.08883
438 1 46.29 6.02151 6.10743
439 1 47.1144 3.69096 6.10738
440 1 47.9391 4.85594 4.08887
441 1 49.5872 3.69106 6.10753
442 1 48.7626 6.02158 6.1076
443 1 50.4121 4.8557 4.08893
444 1 51.2343 6.02183 6.10793
445 1 52.0594 3.69138 6.10784
446 1 52.885 4.85521 4.089
447 1 54.5303 3.6922 6.1085
448 1 53.7037 6.02246 6.10857
449 1 55.3583 4.85405 4.08903
450 1 56.1668 6.02371 6.10991
451 1 56.9981 3.69448 6.10975
452 1 57.8345 4.85244 4.08798
453 1 59.4573 3.69977 6.11699
454 1 58.6122 6.03029 6.10932
455 1 60.3227 4.83331 4.09826
456 1 61 6.02792 6.13954
457 1 61.9244 3.75585 6.03656
458 1 62.9825 4.94126 3.89603
1618 1 63.2586 6.04607 6.08406
1619 1 64.401 3.83386 6.10724
1620 1 65.5433 6.04607 6.13043
1621 1 65.8249 4.65718 4.09219
1622 1 66.8776 3.75585 6.17793
1623 1 67.802 6.02792 6.07495
1624 1 68.4738 4.87141 4.0631
1625 1 69.3447 3.69977 6.0975
1626 1 70.1898 6.03029 6.10516
1627 1 71.8039 3.69448 6.10474
1628 1 70.9645 4.85486 4.08215
1629 1 73.4422 4.85609 4.0855
1630 1 72.6352 6.02371 6.10458
1631 1 74.2717 3.6922 6.10598
1632 1 75.0982 6.02246 6.10591
1633 1 76.7425 3.69138 6.10665
1634 1 75.9162 4.85607 4.08736
1635 1 77.5676 6.02183 6.10655
1636 1 78.3896 4.85608 4.08813
1637 1 79.2147 3.69106 6.10695
1638 1 80.0394 6.02158 6.10689
1639 1 80.8628 4.85612 4.08848
1640 1 81.6875 3.69096 6.1071
1641 1 83.336 4.85617 4.08864
1642 1 82.512 6.02151 6.10706
1643 1 84.1606 3.69095 6.10718
1644 1 86.6337 3.69099 6.10721
1645 1 85.8092 4.85623 4.08871
1646 1 84.985 6.02152 6.10715
1647 1 87.4581 6.02157 6.1072
1648 1 89.1069 3.69105 6.10723
1649 1 88.2825 4.8563 4.08875
1650 1 89.9313 6.02163 6.10722
1651 1 90.7557 4.85637 4.08877
1652 1 91.5801 3.69112 6.10724
1653 1 92.4046 6.0217 6.10723
1654 1 93.229 4.85645 4.08877
1655 1 94.0534 3.6912 6.10724
1656 1 95.7022 4.85652 4.08878
1657 1 94.8778 6.02178 6.10724
1658 1 96.5266 3.69127 6.10724
1659 1 97.351 6.02185 6.10724
1660 1 98.9999 3.69135 6.10724
1661 1 98.1755 4.8566 4.08878
1662 1 99.8243 6.02193 6.10724
1663 1 101.473 3.69143 6.10724
1664 1 100.649 4.85668 4.08878
1665 1 102.298 6.02201 6.10724
1666 1 103.122 4.85675 4.08878
1667 1 103.946 3.6915 6.10724
1668 1 105.595 4.85683 4.08878
1669 1 104.771 6.02208 6.10724
1670 1 106.42 3.69158 6.10724
1671 1 108.893 3.69165 6.10724
1672 1 108.068 4.85691 4.08878
1673 1 107.244 6.02216 6.10724
1674 1 109.717 6.02224 6.10724
1675 1 111.366 3.69173 6.10724
1676 1 110.542 4.85698 4.08878
1677 1 112.191 6.02231 6.10724
1678 1 113.015 4.85706 4.08878
1679 1 113.839 3.69181 6.10724
1680 1 115.488 4.85714 4.08878
1681 1 114.664 6.02239 6.10724
1682 1 116.312 3.69188 6.10724
1683 1 118.786 3.69196 6.10724
1684 1 117.961 4.85721 4.08878
1685 1 117.138 6.02246 6.10724
1686 1 121.259 3.69204 6.10724
1687 1 120.432 4.85729 4.08878
1688 1 119.612 6.02254 6.10724
1689 1 122.09 6.02262 6.10724
1690 1 123.735 3.69211 6.10724
1691 1 122.897 4.85737 4.08878
1692 1 125.339 4.85744 4.08878
1693 1 124.58 6.02269 6.10724
1694 1 126.221 3.69219 6.10724
1695 1 127.7 4.85753 4.08878
1696 1 127.111 6.02276 6.10724
459 1 -0.0557092 7.18803 4.08878
460 1 2.58117 7.18802 4.08878
461 1 1.10234 8.35337 6.10724
462 1 1.69122 9.5186 4.08878
463 1 5.06742 7.18795 4.08878
464 1 4.22211 9.51853 4.08878
465 1 3.46312 8.35328 6.10724
466 1 5.90521 8.3532 6.10724
467 1 7.54292 7.18787 4.08878
468 1 6.71147 9.51845 4.08878
469 1 9.18959 9.51838 4.08878
470 1 8.37019 8.35312 6.10724
471 1 10.0163 7.18779 4.08878
472 1 10.8413 8.35305 6.10724
473 1 11.6643 9.5183 4.08878
474 1 12.4895 7.18772 4.08878
475 1 14.9626 7.18764 4.08878
476 1 14.138 9.51822 4.08878
477 1 13.3139 8.35297 6.10724
478 1 15.7871 8.35289 6.10724
479 1 17.4359 7.18756 4.08878
480 1 16.6114 9.51815 4.08878
481 1 18.2603 8.35282 6.10724
482 1 19.0847 9.51807 4.08878
483 1 19.9091 7.18749 4.08878
484 1 20.7335 8.35274 6.10724
485 1 21.5579 9.51799 4.08878
486 1 22.3823 7.18741 4.08878
487 1 24.8556 7.18734 4.08878
488 1 24.0312 9.51792 4.08878
489 1 23.2068 8.35266 6.10724
490 1 25.68 8.35259 6.10724
491 1 27.3288 7.18726 4.08878
492 1 26.5044 9.51784 4.08878
493 1 28.1532 8.35251 6.10724
494 1 29.8021 7.18718 4.08878
495 1 28.9777 9.51776 4.08878
496 1 30.6265 8.35244 6.10724
497 1 31.4509 9.51769 4.08878