ITEM: TIMESTEP
8636
ITEM: NUMBER OF ATOMS
3120
ITEM: BOX BOUNDS pp pp pp
-5.9833436125885502e+00 1.3955795161258837e+02
1.1833202985183516e-02 2.2250601797014802e+01
3.8351052524977520e-03 1.0556164894747454e+01
ITEM: ATOMS id type x y z
1 1 -3.92601 1.38549 1.50496
2 1 -3.35174 3.0237 3.26369
3 1 -1.67548 2.48638 1.50496
4 1 -0.551503 0.267267 1.50496
5 1 -2.23609 0.819464 3.26369
6 1 1.67232 1.37506 1.50496
7 1 -0.00245237 1.93076 3.26369
8 1 2.22717 3.04148 3.26369
9 1 3.89958 2.4847 1.50496
10 1 5.01323 0.259662 1.50496
11 1 3.34228 0.816858 3.26369
12 1 5.57062 1.92728 3.26369
13 1 7.24181 1.37009 1.50496
14 1 7.79901 3.03764 3.26369
15 1 9.4703 2.48046 1.50496
16 1 10.5845 0.25581 1.50496
17 1 8.91317 0.812954 3.26369
18 1 11.1416 1.92331 3.26369
19 1 12.813 1.36616 1.50496
20 1 14.4843 0.809003 3.26369
21 1 13.3701 3.03367 3.26369
22 1 15.0414 2.47651 1.50496
23 1 16.1557 0.251845 1.50496
24 1 16.7128 1.91936 3.26369
25 1 18.3841 1.3622 1.50496
26 1 20.6126 2.47255 1.50496
27 1 20.0555 0.805043 3.26369
28 1 18.9412 3.02971 3.26369
29 1 21.7268 0.247886 1.50496
30 1 22.2839 1.9154 3.26369
31 1 23.9553 1.35824 1.50496
32 1 26.1837 2.4686 1.50496
33 1 25.6266 0.801084 3.26369
34 1 24.5124 3.02575 3.26369
35 1 29.5264 1.35428 1.50496
36 1 27.2979 0.243927 1.50496
37 1 27.8551 1.91144 3.26369
38 1 31.7549 2.46464 1.50496
39 1 31.1977 0.797125 3.26369
40 1 30.0835 3.02179 3.26369
41 1 35.0975 1.35032 1.50496
42 1 32.8691 0.239968 1.50496
43 1 33.4262 1.90748 3.26369
44 1 37.326 2.46068 1.50496
45 1 38.4402 0.236009 1.50496
46 1 35.6547 3.01783 3.26369
47 1 36.7689 0.793166 3.26369
48 1 40.6687 1.34636 1.50496
49 1 38.9973 1.90352 3.26369
50 1 41.2258 3.01388 3.26369
51 1 42.8971 2.45672 1.50496
52 1 44.0114 0.23205 1.50496
53 1 42.34 0.789207 3.26369
54 1 46.2398 1.34241 1.50496
55 1 44.5685 1.89956 3.26369
56 1 46.7969 3.00992 3.26369
57 1 48.4683 2.45276 1.50496
58 1 49.5825 0.228091 1.50496
59 1 47.9112 0.785248 3.26369
60 1 50.1396 1.8956 3.26369
61 1 51.811 1.33845 1.50496
62 1 52.3681 3.00596 3.26369
63 1 54.0394 2.4488 1.50496
64 1 55.1536 0.224132 1.50496
65 1 53.4823 0.781289 3.26369
66 1 55.7108 1.89164 3.26369
67 1 57.3821 1.33449 1.50496
68 1 59.0534 0.777325 3.26369
69 1 57.9392 3.002 3.26369
70 1 59.6106 2.44485 1.50496
71 1 60.7247 0.220152 1.50496
72 1 61.2818 1.88767 3.26369
73 1 62.9531 1.33045 1.50496
74 1 65.1813 2.44061 1.50496
75 1 64.6248 0.773415 3.26369
76 1 63.5102 2.99803 3.26369
77 1 66.2965 0.216516 1.50496
78 1 66.8537 1.88383 3.26369
79 1 69.0833 2.99455 3.26369
80 1 68.5262 1.32728 1.50496
81 1 70.1971 0.772656 3.26369
82 1 70.7563 2.43894 1.50496
83 1 73.9776 1.34008 1.50496
84 1 71.8422 0.197355 1.50496
85 1 72.4326 1.90161 3.26369
1717 1 76.2299 1.34113 1.50496
1718 1 75.1034 2.87488 3.26369
1719 1 80.0105 0.774275 3.26369
1720 1 77.775 1.90284 3.26369
1721 1 79.4514 2.44045 1.50496
1722 1 78.3653 0.198745 1.50496
1723 1 81.6815 1.32916 1.50496
1724 1 81.1244 2.99636 3.26369
1725 1 85.583 0.775919 3.26369
1726 1 83.354 1.88598 3.26369
1727 1 85.0265 2.44303 1.50496
1728 1 83.9112 0.218753 1.50496
1729 1 87.2547 1.33322 1.50496
1730 1 86.6975 3.00071 3.26369
1731 1 88.926 1.89071 3.26369
1732 1 91.1545 0.780708 3.26369
1733 1 90.5973 2.44815 1.50496
1734 1 89.4831 0.223272 1.50496
1735 1 92.8258 1.33814 1.50496
1736 1 92.2687 3.00556 3.26369
1737 1 94.4972 1.89556 3.26369
1738 1 96.7257 0.785553 3.26369
1739 1 97.8399 3.0104 3.26369
1740 1 96.1686 2.45298 1.50496
1741 1 95.0543 0.228132 1.50496
1742 1 98.3971 1.34297 1.50496
1743 1 100.068 1.9004 3.26369
1744 1 100.626 0.232972 1.50496
1745 1 102.297 0.790393 3.26369
1746 1 103.411 3.01524 3.26369
1747 1 101.74 2.45782 1.50496
1748 1 103.968 1.34781 1.50496
1749 1 105.64 1.90524 3.26369
1750 1 106.197 0.237812 1.50496
1751 1 107.868 0.795234 3.26369
1752 1 109.54 1.35265 1.50496
1753 1 108.982 3.02008 3.26369
1754 1 107.311 2.46266 1.50496
1755 1 111.211 1.91008 3.26369
1756 1 111.768 0.242653 1.50496
1757 1 113.439 0.800074 3.26369
1758 1 115.111 1.3575 1.50496
1759 1 114.554 3.02492 3.26369
1760 1 112.882 2.4675 1.50496
1761 1 116.782 1.91492 3.26369
1762 1 118.454 2.47234 1.50496
1763 1 117.339 0.247493 1.50496
1764 1 119.011 0.804915 3.26369
1765 1 120.682 1.36234 1.50496
1766 1 120.125 3.02976 3.26369
1767 1 124.582 0.809746 3.26369
1768 1 122.353 1.91975 3.26369
1769 1 124.025 2.47717 1.50496
1770 1 122.911 0.252339 1.50496
1771 1 126.253 1.36714 1.50496
1772 1 125.696 3.03461 3.26369
1773 1 130.153 0.814531 3.26369
1774 1 127.925 1.9246 3.26369
1775 1 129.596 2.48229 1.50496
1776 1 128.482 0.257071 1.50496
1777 1 131.823 1.37299 1.50496
1778 1 131.268 3.03933 3.26369
1779 1 133.498 1.92896 3.26369
1780 1 135.732 0.817997 3.26369
1781 1 135.171 2.48486 1.50496
1782 1 134.047 0.265546 1.50496
1783 1 139.519 2.05044 3.26369
1784 1 136.847 3.02247 3.26369
1785 1 137.421 1.38439 1.50496
1786 1 139.518 0.262323 1.50496
86 1 -4.89677 3.58524 1.50496
87 1 -4.48545 5.28103 3.26369
88 1 -2.7614 4.72796 1.50496
89 1 -0.551503 5.82696 1.50496
90 1 -1.11623 4.15266 3.26369
91 1 0.554643 3.59804 1.50496
92 1 2.78437 4.7088 1.50496
93 1 1.11384 5.26568 3.26369
94 1 5.01323 5.81935 1.50496
95 1 4.45605 4.1519 3.26369
96 1 6.12773 3.59486 1.50496
97 1 8.3561 4.70516 1.50496
98 1 6.68466 5.26228 3.26369
99 1 11.6988 3.59083 1.50496
100 1 10.5845 5.8155 1.50496
101 1 10.0274 4.14799 3.26369
102 1 13.9272 4.70118 1.50496
103 1 12.2559 5.25834 3.26369
104 1 17.2699 3.58687 1.50496
105 1 16.1557 5.81154 1.50496
106 1 15.5986 4.14403 3.26369
107 1 19.4984 4.69722 1.50496
108 1 17.827 5.25438 3.26369
183 1 20.0555 6.36474 3.26369
109 1 22.841 3.58291 1.50496
110 1 21.7268 5.80758 1.50496
111 1 21.1697 4.14007 3.26369
112 1 23.3982 5.25042 3.26369
113 1 25.0695 4.69326 1.50496
189 1 25.6266 6.36078 3.26369
114 1 28.4122 3.57895 1.50496
115 1 27.2979 5.80362 1.50496
116 1 26.7408 4.13611 3.26369
117 1 28.9693 5.24646 3.26369
118 1 30.6406 4.68931 1.50496
119 1 32.312 4.13215 3.26369
196 1 31.1977 6.35682 3.26369
120 1 33.9833 3.57499 1.50496
121 1 32.8691 5.79966 1.50496
122 1 34.5404 5.2425 3.26369
123 1 36.2118 4.68535 1.50496
124 1 38.4402 5.7957 1.50496
125 1 37.8831 4.12819 3.26369
202 1 36.7689 6.35286 3.26369
126 1 39.5544 3.57103 1.50496
127 1 40.1116 5.23854 3.26369
128 1 41.7829 4.68139 1.50496
129 1 44.0114 5.79174 1.50496
130 1 43.4542 4.12423 3.26369
209 1 42.34 6.3489 3.26369
131 1 45.1256 3.56707 1.50496
132 1 47.354 4.67743 1.50496
133 1 45.6827 5.23459 3.26369
134 1 49.5825 5.78778 1.50496
135 1 49.0254 4.12027 3.26369
215 1 47.9112 6.34494 3.26369
136 1 50.6967 3.56311 1.50496
137 1 52.9252 4.67347 1.50496
138 1 51.2538 5.23063 3.26369
139 1 56.2679 3.55915 1.50496
140 1 55.1536 5.78382 1.50496
141 1 54.5965 4.11631 3.26369
221 1 53.4823 6.34098 3.26369
142 1 58.4963 4.6695 1.50496
143 1 56.825 5.22666 3.26369
225 1 59.0534 6.33702 3.26369
144 1 61.839 3.55523 1.50496
145 1 60.7247 5.77984 1.50496
146 1 60.1677 4.11236 3.26369
147 1 64.0676 4.66565 1.50496
148 1 62.3962 5.22273 3.26369
231 1 64.6248 6.33311 3.26369
149 1 66.2965 5.77621 1.50496
150 1 67.967 5.21933 3.26369
151 1 67.4085 3.55026 1.50496
152 1 65.7386 4.10846 3.26369
153 1 69.6324 4.65805 1.50496
237 1 70.1971 6.33235 3.26369
154 1 71.3169 4.10585 3.26369
155 1 73.0069 3.53983 1.50496
156 1 71.8422 5.75705 1.50496
157 1 73.5663 5.20398 3.26369
1787 1 76.641 5.20507 3.26369
1788 1 75.1038 4.66299 1.50496
1789 1 77.2009 3.54093 1.50496
1790 1 80.0105 6.33397 3.26369
1791 1 78.3653 5.75844 1.50496
1792 1 78.8906 4.10732 3.26369
1793 1 82.2407 5.2213 3.26369
1794 1 80.5753 4.65977 1.50496
1795 1 82.7992 3.55232 1.50496
1796 1 85.583 6.33561 3.26369
1797 1 83.9112 5.77845 1.50496
1798 1 84.4692 4.11078 3.26369
1799 1 87.8116 5.22558 3.26369
1800 1 86.1402 4.66824 1.50496
1801 1 88.3688 3.55817 1.50496
1802 1 91.1545 6.3404 3.26369
1803 1 89.4831 5.78296 1.50496
1804 1 91.7116 4.67298 1.50496
1805 1 90.0402 4.11557 3.26369
1806 1 93.3829 5.2304 3.26369
1807 1 93.9401 3.56298 1.50496
1808 1 96.7257 6.34525 3.26369
1809 1 95.0543 5.78782 1.50496
1810 1 97.2828 4.67782 1.50496
1811 1 95.6114 4.1204 3.26369
1812 1 98.9542 5.23524 3.26369
1813 1 100.626 5.79266 1.50496
1814 1 99.5113 3.56782 1.50496
1815 1 102.297 6.35009 3.26369
1816 1 102.854 4.68266 1.50496
1817 1 101.183 4.12524 3.26369
1818 1 104.525 5.24008 3.26369
1819 1 106.197 5.7975 1.50496
1820 1 106.754 4.13008 3.26369
1821 1 105.083 3.57266 1.50496
1822 1 107.868 6.35493 3.26369
1823 1 108.425 4.6875 1.50496
1824 1 110.097 5.24492 3.26369
1825 1 111.768 5.80234 1.50496
1826 1 112.325 4.13492 3.26369
1827 1 110.654 3.5775 1.50496
1828 1 113.439 6.35977 3.26369
1829 1 115.668 5.24976 3.26369
1830 1 113.997 4.69234 1.50496
1831 1 117.339 5.80719 1.50496
1832 1 117.896 4.13976 3.26369
1833 1 116.225 3.58234 1.50496
1834 1 119.011 6.36461 3.26369
1835 1 121.239 5.25461 3.26369
1836 1 119.568 4.69718 1.50496
1838 1 122.911 5.81203 1.50496
1839 1 123.468 4.14461 3.26369
1840 1 121.796 3.58718 1.50496
1841 1 126.811 5.25942 3.26369
1842 1 125.139 4.70204 1.50496
1843 1 127.367 3.59209 1.50496
1845 1 128.482 5.81676 1.50496
1846 1 129.039 4.1494 3.26369
1847 1 132.381 5.26371 3.26369
1848 1 130.711 4.70656 1.50496
1849 1 132.941 3.59616 1.50496
1851 1 134.047 5.82524 1.50496
1852 1 136.257 4.72657 1.50496
1853 1 134.612 4.15104 3.26369
1854 1 137.981 5.27994 3.26369
1855 1 139.518 5.82202 1.50496
1856 1 138.392 3.58418 1.50496
158 1 -3.92601 6.94518 1.50496
159 1 -4.89677 9.14493 1.50496
160 1 -3.35174 8.5834 3.26369
161 1 -2.23609 6.37916 3.26369
162 1 -1.67548 8.04607 1.50496
163 1 1.67232 6.93475 1.50496
164 1 0.554643 9.15773 1.50496
165 1 -0.00245237 7.49045 3.26369
166 1 2.22717 8.60118 3.26369
167 1 3.34228 6.37655 3.26369
168 1 3.89958 8.04439 1.50496
169 1 5.57062 7.48698 3.26369
170 1 6.12773 9.15455 1.50496
171 1 7.24181 6.92978 1.50496
172 1 7.79901 8.59733 3.26369
173 1 8.91317 6.37265 3.26369
174 1 9.4703 8.04016 1.50496
175 1 11.6988 9.15052 1.50496
176 1 11.1416 7.48301 3.26369
177 1 14.4843 6.3687 3.26369
178 1 12.813 6.92585 1.50496
179 1 13.3701 8.59336 3.26369
180 1 15.0414 8.03621 1.50496
181 1 17.2699 9.14656 1.50496
182 1 16.7128 7.47905 3.26369
184 1 18.3841 6.92189 1.50496
185 1 20.6126 8.03225 1.50496
186 1 18.9412 8.5894 3.26369
187 1 22.841 9.1426 1.50496
188 1 22.2839 7.47509 3.26369
190 1 23.9553 6.91793 1.50496
191 1 26.1837 8.02829 1.50496
192 1 24.5124 8.58544 3.26369
193 1 29.5264 6.91397 1.50496
194 1 28.4122 9.13864 1.50496
195 1 27.8551 7.47113 3.26369
197 1 31.7549 8.02433 1.50496
198 1 30.0835 8.58149 3.26369
199 1 35.0975 6.91002 1.50496
200 1 33.9833 9.13468 1.50496
201 1 33.4262 7.46717 3.26369
203 1 37.326 8.02037 1.50496
204 1 35.6547 8.57753 3.26369
205 1 40.6687 6.90606 1.50496
206 1 39.5544 9.13073 1.50496
207 1 38.9973 7.46321 3.26369
208 1 41.2258 8.57357 3.26369
210 1 42.8971 8.01641 1.50496
211 1 45.1256 9.12677 1.50496
212 1 46.2398 6.9021 1.50496
213 1 44.5685 7.45925 3.26369
214 1 46.7969 8.56961 3.26369
216 1 48.4683 8.01245 1.50496
217 1 50.1396 7.45529 3.26369
218 1 50.6967 9.12281 1.50496
219 1 51.811 6.89814 1.50496
220 1 52.3681 8.56565 3.26369
222 1 54.0394 8.00849 1.50496
223 1 56.2679 9.11885 1.50496
224 1 55.7108 7.45134 3.26369
226 1 57.3821 6.89418 1.50496
227 1 57.9392 8.56169 3.26369
228 1 59.6106 8.00454 1.50496
229 1 61.839 9.11492 1.50496
230 1 61.2818 7.44737 3.26369
232 1 62.9531 6.89014 1.50496
233 1 65.1813 8.0003 1.50496
234 1 63.5102 8.55772 3.26369
235 1 66.8537 7.44352 3.26369
236 1 67.4085 9.10995 1.50496
238 1 69.0833 8.55424 3.26369
239 1 68.5262 6.88697 1.50496
240 1 70.7563 7.99863 1.50496
241 1 73.9776 6.89977 1.50496
242 1 73.0069 9.09952 1.50496
243 1 72.4326 7.4613 3.26369
1857 1 75.1034 8.43457 3.26369
1858 1 76.2299 6.90083 1.50496
1859 1 77.2009 9.10062 1.50496
1860 1 77.775 7.46254 3.26369
1861 1 79.4514 8.00014 1.50496
1862 1 81.6815 6.88885 1.50496
1863 1 81.1244 8.55605 3.26369
1864 1 82.7992 9.11201 1.50496
1865 1 83.354 7.44568 3.26369
1866 1 85.0265 8.00272 1.50496
1867 1 88.926 7.4504 3.26369
1868 1 87.2547 6.89291 1.50496
1869 1 86.6975 8.5604 3.26369
1870 1 88.3688 9.11786 1.50496
1871 1 90.5973 8.00784 1.50496
1872 1 94.4972 7.45525 3.26369
1873 1 92.8258 6.89783 1.50496
1874 1 92.2687 8.56525 3.26369
1875 1 93.9401 9.12267 1.50496
1876 1 97.8399 8.57009 3.26369
1877 1 96.1686 8.01267 1.50496
1878 1 100.068 7.46009 3.26369
1879 1 98.3971 6.90267 1.50496
1880 1 99.5113 9.12751 1.50496
1881 1 103.411 8.57493 3.26369
1882 1 101.74 8.01751 1.50496
1883 1 105.64 7.46493 3.26369
1884 1 103.968 6.90751 1.50496
1885 1 105.083 9.13235 1.50496
1886 1 109.54 6.91235 1.50496
1887 1 108.982 8.57977 3.26369
1888 1 107.311 8.02235 1.50496
1889 1 111.211 7.46977 3.26369
1890 1 110.654 9.13719 1.50496
1891 1 115.111 6.91719 1.50496
1892 1 114.554 8.58461 3.26369
1893 1 112.882 8.02719 1.50496
1894 1 116.782 7.47461 3.26369
1895 1 116.225 9.14203 1.50496
1896 1 118.454 8.03203 1.50496
1897 1 120.682 6.92203 1.50496
1898 1 120.125 8.58945 3.26369
1837 1 124.582 6.36944 3.26369
1899 1 122.353 7.47945 3.26369
1900 1 121.796 9.14687 1.50496
1901 1 124.025 8.03686 1.50496
1902 1 126.253 6.92684 1.50496
1903 1 125.696 8.5943 3.26369
1904 1 127.367 9.15179 1.50496
1844 1 130.153 6.37422 3.26369
1905 1 127.925 7.4843 3.26369
1906 1 129.596 8.04198 1.50496
1907 1 133.498 7.48865 3.26369
1908 1 131.823 6.93268 1.50496
1909 1 131.268 8.59902 3.26369
1910 1 132.941 9.15585 1.50496
1850 1 135.732 6.37769 3.26369
1911 1 135.171 8.04456 1.50496
1912 1 139.519 7.61013 3.26369
1913 1 137.421 6.94408 1.50496
1914 1 136.847 8.58216 3.26369
1915 1 138.392 9.14387 1.50496
244 1 -3.92601 12.5049 1.50496
245 1 -4.48545 10.8407 3.26369
246 1 -2.7614 10.2877 1.50496
247 1 -0.551503 11.3867 1.50496
248 1 -1.11623 9.71235 3.26369
249 1 -2.23609 11.9388 3.26369
250 1 2.78437 10.2685 1.50496
251 1 1.67232 12.4944 1.50496
252 1 1.11384 10.8254 3.26369
253 1 5.01323 11.379 1.50496
254 1 4.45605 9.71159 3.26369
255 1 3.34228 11.9362 3.26369
256 1 8.3561 10.2649 1.50496
257 1 7.24181 12.4895 1.50496
258 1 6.68466 10.822 3.26369
259 1 10.5845 11.3752 1.50496
260 1 10.0274 9.70768 3.26369
261 1 8.91317 11.9323 3.26369
262 1 13.9272 10.2609 1.50496
263 1 12.813 12.4855 1.50496
264 1 12.2559 10.818 3.26369
265 1 14.4843 11.9284 3.26369
266 1 16.1557 11.3712 1.50496
267 1 15.5986 9.70372 3.26369
268 1 19.4984 10.2569 1.50496
269 1 18.3841 12.4816 1.50496
270 1 17.827 10.8141 3.26369
271 1 20.0555 11.9244 3.26369
272 1 21.7268 11.3673 1.50496
273 1 21.1697 9.69976 3.26369
274 1 23.3982 10.8101 3.26369
275 1 23.9553 12.4776 1.50496
276 1 25.0695 10.253 1.50496
277 1 25.6266 11.9205 3.26369
278 1 27.2979 11.3633 1.50496
279 1 29.5264 12.4737 1.50496
280 1 26.7408 9.6958 3.26369
281 1 28.9693 10.8062 3.26369
282 1 30.6406 10.249 1.50496
283 1 32.312 9.69184 3.26369
284 1 31.1977 11.9165 3.26369
285 1 32.8691 11.3594 1.50496
286 1 35.0975 12.4697 1.50496
287 1 34.5404 10.8022 3.26369
288 1 36.2118 10.245 1.50496
289 1 38.4402 11.3554 1.50496
290 1 37.8831 9.68788 3.26369
291 1 36.7689 11.9126 3.26369
292 1 40.6687 12.4657 1.50496
293 1 40.1116 10.7982 3.26369
294 1 41.7829 10.2411 1.50496
295 1 44.0114 11.3514 1.50496
296 1 43.4542 9.68392 3.26369
297 1 42.34 11.9086 3.26369
298 1 47.354 10.2371 1.50496
299 1 46.2398 12.4618 1.50496
300 1 45.6827 10.7943 3.26369
301 1 49.5825 11.3475 1.50496
302 1 49.0254 9.67996 3.26369
303 1 47.9112 11.9046 3.26369
304 1 52.9252 10.2332 1.50496
305 1 51.811 12.4578 1.50496
306 1 51.2538 10.7903 3.26369
307 1 55.1536 11.3435 1.50496
308 1 54.5965 9.676 3.26369
309 1 53.4823 11.9007 3.26369
310 1 58.4963 10.2292 1.50496
311 1 57.3821 12.4539 1.50496
312 1 56.825 10.7864 3.26369
313 1 59.0534 11.8967 3.26369
314 1 60.7247 11.3395 1.50496
315 1 60.1677 9.67205 3.26369
316 1 64.0676 10.2253 1.50496
317 1 62.9531 12.4498 1.50496
318 1 62.3962 10.7824 3.26369
319 1 64.6248 11.8928 3.26369
320 1 66.2965 11.3359 1.50496
321 1 67.967 10.779 3.26369
322 1 65.7386 9.66815 3.26369
323 1 68.5262 12.4467 1.50496
324 1 69.6324 10.2177 1.50496
325 1 70.1971 11.892 3.26369
326 1 71.3169 9.66554 3.26369
327 1 71.8422 11.3167 1.50496
328 1 73.9776 12.4595 1.50496
329 1 73.5663 10.7637 3.26369
1916 1 75.1038 10.2227 1.50496
1917 1 76.641 10.7648 3.26369
1918 1 76.2299 12.4605 1.50496
1919 1 78.8906 9.66701 3.26369
1920 1 80.0105 11.8937 3.26369
1921 1 78.3653 11.3181 1.50496
1922 1 82.2407 10.781 3.26369
1923 1 80.5753 10.2195 1.50496
1924 1 81.6815 12.4485 1.50496
1925 1 84.4692 9.67048 3.26369
1926 1 85.583 11.8953 3.26369
1927 1 83.9112 11.3381 1.50496
1928 1 87.8116 10.7853 3.26369
1929 1 86.1402 10.2279 1.50496
1930 1 87.2547 12.4526 1.50496
1931 1 90.0402 9.67526 3.26369
1932 1 91.7116 10.2327 1.50496
1933 1 91.1545 11.9001 3.26369
1934 1 89.4831 11.3427 1.50496
1935 1 93.3829 10.7901 3.26369
1936 1 92.8258 12.4575 1.50496
1937 1 95.6114 9.68009 3.26369
1938 1 97.2828 10.2375 1.50496
1939 1 96.7257 11.9049 3.26369
1940 1 95.0543 11.3475 1.50496
1941 1 98.9542 10.7949 3.26369
1942 1 98.3971 12.4624 1.50496
1943 1 100.626 11.3524 1.50496
1944 1 101.183 9.68493 3.26369
1945 1 102.854 10.2424 1.50496
1946 1 102.297 11.9098 3.26369
1947 1 106.754 9.68977 3.26369
1948 1 104.525 10.7998 3.26369
1949 1 103.968 12.4672 1.50496
1950 1 106.197 11.3572 1.50496
1951 1 108.425 10.2472 1.50496
1952 1 107.868 11.9146 3.26369
1953 1 109.54 12.472 1.50496
1954 1 112.325 9.69461 3.26369
1955 1 110.097 10.8046 3.26369
1956 1 111.768 11.362 1.50496
1957 1 115.668 10.8095 3.26369
1958 1 113.997 10.252 1.50496
1959 1 113.439 11.9195 3.26369
1960 1 115.111 12.4769 1.50496
1961 1 117.896 9.69945 3.26369
1962 1 117.339 11.3669 1.50496
1963 1 121.239 10.8143 3.26369
1964 1 119.568 10.2569 1.50496
1965 1 119.011 11.9243 3.26369
1966 1 120.682 12.4817 1.50496
1967 1 123.468 9.7043 3.26369
1968 1 124.582 11.9291 3.26369
1969 1 122.911 11.3717 1.50496
1970 1 125.139 10.2617 1.50496
1971 1 126.811 10.8191 3.26369
1972 1 126.253 12.4865 1.50496
1973 1 129.039 9.70909 3.26369
1974 1 130.153 11.9339 3.26369
1975 1 128.482 11.3765 1.50496
1976 1 130.711 10.2663 1.50496
1977 1 132.381 10.8234 3.26369
1978 1 131.823 12.4924 1.50496
1979 1 134.612 9.71073 3.26369
1980 1 136.257 10.2863 1.50496
1981 1 135.732 11.9374 3.26369
1982 1 134.047 11.3849 1.50496
1983 1 137.981 10.8396 3.26369
1984 1 139.518 11.3817 1.50496
1985 1 137.421 12.5038 1.50496
330 1 -4.89677 14.7046 1.50496
331 1 -3.35174 14.1431 3.26369
332 1 -1.67548 13.6058 1.50496
333 1 -1.11623 15.272 3.26369
334 1 -2.7614 15.8473 1.50496
335 1 0.554643 14.7174 1.50496
336 1 -0.00245237 13.0501 3.26369
337 1 2.22717 14.1609 3.26369
338 1 2.78437 15.8282 1.50496
339 1 3.89958 13.6041 1.50496
340 1 5.57062 13.0467 3.26369
341 1 4.45605 15.2713 3.26369
342 1 6.12773 14.7142 1.50496
343 1 7.79901 14.157 3.26369
344 1 8.3561 15.8245 1.50496
345 1 9.4703 13.5998 1.50496
346 1 11.6988 14.7102 1.50496
347 1 11.1416 13.0427 3.26369
348 1 10.0274 15.2674 3.26369
349 1 13.3701 14.1531 3.26369
350 1 13.9272 15.8206 1.50496
351 1 15.0414 13.5959 1.50496
352 1 17.2699 14.7063 1.50496
353 1 16.7128 13.0387 3.26369
354 1 15.5986 15.2634 3.26369
355 1 20.6126 13.5919 1.50496
356 1 18.9412 14.1491 3.26369
357 1 19.4984 15.8166 1.50496
358 1 22.841 14.7023 1.50496
359 1 22.2839 13.0348 3.26369
360 1 21.1697 15.2595 3.26369
361 1 26.1837 13.588 1.50496
362 1 24.5124 14.1451 3.26369
363 1 25.0695 15.8126 1.50496
364 1 28.4122 14.6983 1.50496
365 1 27.8551 13.0308 3.26369
366 1 26.7408 15.2555 3.26369
367 1 31.7549 13.584 1.50496
368 1 30.0835 14.1412 3.26369
369 1 32.312 15.2515 3.26369
370 1 30.6406 15.8087 1.50496
371 1 33.9833 14.6944 1.50496
372 1 33.4262 13.0269 3.26369
373 1 37.326 13.5801 1.50496
374 1 35.6547 14.1372 3.26369
375 1 37.8831 15.2476 3.26369
376 1 36.2118 15.8047 1.50496
377 1 39.5544 14.6904 1.50496
378 1 38.9973 13.0229 3.26369
379 1 41.2258 14.1333 3.26369
380 1 42.8971 13.5761 1.50496
381 1 43.4542 15.2436 3.26369
382 1 41.7829 15.8008 1.50496
383 1 45.1256 14.6865 1.50496
384 1 44.5685 13.0189 3.26369
385 1 46.7969 14.1293 3.26369
386 1 47.354 15.7968 1.50496
387 1 48.4683 13.5721 1.50496
388 1 50.1396 13.015 3.26369
389 1 49.0254 15.2397 3.26369
390 1 50.6967 14.6825 1.50496
391 1 52.3681 14.1253 3.26369
392 1 52.9252 15.7929 1.50496
393 1 54.0394 13.5682 1.50496
394 1 56.2679 14.6785 1.50496
395 1 55.7108 13.011 3.26369
396 1 54.5965 15.2357 3.26369
397 1 57.9392 14.1214 3.26369
398 1 58.4963 15.7889 1.50496
399 1 59.6106 13.5642 1.50496
400 1 61.839 14.6746 1.50496
401 1 61.2818 13.0071 3.26369
402 1 60.1677 15.2317 3.26369
403 1 65.1813 13.56 1.50496
404 1 63.5102 14.1174 3.26369
405 1 64.0676 15.785 1.50496
406 1 66.8537 13.0032 3.26369
407 1 67.4085 14.6696 1.50496
408 1 65.7386 15.2278 3.26369
409 1 69.0833 14.1139 3.26369
410 1 70.7563 13.5583 1.50496
411 1 69.6324 15.7774 1.50496
412 1 71.3169 15.2252 3.26369
413 1 73.0069 14.6592 1.50496
414 1 72.4326 13.021 3.26369
1986 1 75.1034 13.9943 3.26369
1987 1 75.1038 15.7824 1.50496
1988 1 77.2009 14.6603 1.50496
1989 1 77.775 13.0222 3.26369
1990 1 79.4514 13.5598 1.50496
1991 1 78.8906 15.2267 3.26369
1992 1 81.1244 14.1157 3.26369
1993 1 80.5753 15.7792 1.50496
1994 1 82.7992 14.6717 1.50496
1995 1 83.354 13.0054 3.26369
1996 1 85.0265 13.5624 1.50496
1997 1 84.4692 15.2302 3.26369
1998 1 88.926 13.0101 3.26369
1999 1 86.6975 14.1201 3.26369
2000 1 86.1402 15.7876 1.50496
2001 1 88.3688 14.6776 1.50496
2002 1 90.5973 13.5675 1.50496
2003 1 90.0402 15.235 3.26369
2004 1 91.7116 15.7924 1.50496
2005 1 94.4972 13.0149 3.26369
2006 1 92.2687 14.1249 3.26369
2007 1 93.9401 14.6824 1.50496
2008 1 96.1686 13.5724 1.50496
2009 1 95.6114 15.2398 3.26369
2010 1 97.8399 14.1298 3.26369
2011 1 97.2828 15.7972 1.50496
2012 1 100.068 13.0198 3.26369
2013 1 99.5113 14.6872 1.50496
2014 1 101.74 13.5772 1.50496
2015 1 101.183 15.2446 3.26369
2016 1 103.411 14.1346 3.26369
2017 1 102.854 15.802 1.50496
2018 1 105.64 13.0246 3.26369
2019 1 106.754 15.2495 3.26369
2020 1 105.083 14.692 1.50496
2021 1 107.311 13.582 1.50496
2022 1 108.982 14.1395 3.26369
2023 1 108.425 15.8069 1.50496
2024 1 111.211 13.0295 3.26369
2025 1 112.325 15.2543 3.26369
2026 1 110.654 14.6969 1.50496
2027 1 112.882 13.5869 1.50496
2028 1 114.554 14.1443 3.26369
2029 1 113.997 15.8117 1.50496
2030 1 116.782 13.0343 3.26369
2031 1 118.454 13.5917 1.50496
2032 1 117.896 15.2591 3.26369
2033 1 116.225 14.7017 1.50496
2034 1 120.125 14.1491 3.26369
2035 1 119.568 15.8166 1.50496
2036 1 122.353 13.0391 3.26369
2037 1 124.025 13.5966 1.50496
2038 1 123.468 15.264 3.26369
2039 1 121.796 14.7066 1.50496
2040 1 125.696 14.154 3.26369
2041 1 125.139 15.8214 1.50496
2042 1 127.367 14.7115 1.50496
2043 1 127.925 13.044 3.26369
2044 1 129.596 13.6017 1.50496
2045 1 129.039 15.2688 3.26369
2046 1 133.498 13.0483 3.26369
2047 1 131.268 14.1587 3.26369
2048 1 130.711 15.8259 1.50496
2049 1 132.941 14.7155 1.50496
2050 1 135.171 13.6042 1.50496
2051 1 134.612 15.2704 3.26369
2052 1 136.257 15.846 1.50496
2053 1 139.519 13.1698 3.26369
2054 1 136.847 14.1419 3.26369
2055 1 138.392 14.7036 1.50496
415 1 -3.92601 18.0646 1.50496
416 1 -4.48545 16.4004 3.26369
417 1 -0.551503 16.9463 1.50496
418 1 -2.23609 17.4985 3.26369
419 1 1.67232 18.0541 1.50496
420 1 -0.00245237 18.6098 3.26369
421 1 1.11384 16.3851 3.26369
422 1 5.01323 16.9387 1.50496
423 1 3.34228 17.4959 3.26369
424 1 5.57062 18.6064 3.26369
425 1 7.24181 18.0492 1.50496
426 1 6.68466 16.3817 3.26369
427 1 10.5845 16.9349 1.50496
428 1 8.91317 17.492 3.26369
429 1 11.1416 18.6024 3.26369
430 1 12.813 18.0452 1.50496
431 1 12.2559 16.3777 3.26369
432 1 14.4843 17.4881 3.26369
433 1 16.1557 16.9309 1.50496
434 1 16.7128 18.5984 3.26369
435 1 18.3841 18.0413 1.50496
436 1 17.827 16.3738 3.26369
437 1 20.0555 17.4841 3.26369
438 1 21.7268 16.927 1.50496
439 1 23.3982 16.3698 3.26369
440 1 22.2839 18.5945 3.26369
441 1 23.9553 18.0373 1.50496
442 1 25.6266 17.4802 3.26369
443 1 27.2979 16.923 1.50496
444 1 29.5264 18.0334 1.50496
445 1 28.9693 16.3658 3.26369
446 1 27.8551 18.5905 3.26369
447 1 31.1977 17.4762 3.26369
448 1 32.8691 16.919 1.50496
449 1 35.0975 18.0294 1.50496
450 1 34.5404 16.3619 3.26369
451 1 33.4262 18.5866 3.26369
452 1 38.4402 16.9151 1.50496
453 1 36.7689 17.4722 3.26369
454 1 40.6687 18.0254 1.50496
455 1 40.1116 16.3579 3.26369
456 1 38.9973 18.5826 3.26369
457 1 44.0114 16.9111 1.50496
458 1 42.34 17.4683 3.26369
459 1 46.2398 18.0215 1.50496
460 1 45.6827 16.354 3.26369
461 1 44.5685 18.5786 3.26369
462 1 49.5825 16.9072 1.50496
463 1 47.9112 17.4643 3.26369
464 1 50.1396 18.5747 3.26369
465 1 51.811 18.0175 1.50496
466 1 51.2538 16.35 3.26369
467 1 55.1536 16.9032 1.50496
468 1 53.4823 17.4604 3.26369
469 1 55.7108 18.5707 3.26369
470 1 57.3821 18.0136 1.50496
471 1 56.825 16.346 3.26369
472 1 59.0534 17.4564 3.26369
473 1 60.7247 16.8992 1.50496
474 1 61.2818 18.5668 3.26369
475 1 62.9531 18.0095 1.50496
476 1 62.3962 16.3421 3.26369
477 1 64.6248 17.4525 3.26369
478 1 66.2965 16.8956 1.50496
479 1 67.967 16.3387 3.26369
480 1 66.8537 18.5629 3.26369
481 1 68.5262 18.0064 1.50496
482 1 70.1971 17.4517 3.26369
483 1 71.8422 16.8764 1.50496
484 1 73.9776 18.0192 1.50496
485 1 73.5663 16.3234 3.26369
486 1 72.4326 18.5807 3.26369
2056 1 76.641 16.3245 3.26369
2057 1 76.2299 18.0202 1.50496
2058 1 78.3653 16.8778 1.50496
2059 1 77.775 18.5819 3.26369
2060 1 80.0105 17.4534 3.26369
2061 1 82.2407 16.3407 3.26369
2062 1 81.6815 18.0082 1.50496
2063 1 83.9112 16.8978 1.50496
2064 1 83.354 18.5651 3.26369
2065 1 85.583 17.455 3.26369
2066 1 87.8116 16.345 3.26369
2067 1 88.926 18.5698 3.26369
2068 1 87.2547 18.0123 1.50496
2069 1 89.4831 16.9023 1.50496
2070 1 91.1545 17.4598 3.26369
2071 1 93.3829 16.3498 3.26369
2072 1 94.4972 18.5746 3.26369
2073 1 92.8258 18.0172 1.50496
2074 1 95.0543 16.9072 1.50496
2075 1 96.7257 17.4646 3.26369
2076 1 98.9542 16.3546 3.26369
2077 1 100.626 16.912 1.50496
2078 1 100.068 18.5795 3.26369
2079 1 98.3971 18.0221 1.50496
2080 1 102.297 17.4695 3.26369
2081 1 104.525 16.3595 3.26369
2082 1 106.197 16.9169 1.50496
2083 1 105.64 18.5843 3.26369
2084 1 103.968 18.0269 1.50496
2085 1 107.868 17.4743 3.26369
2086 1 109.54 18.0317 1.50496
2087 1 110.097 16.3643 3.26369
2088 1 111.768 16.9217 1.50496
2089 1 111.211 18.5892 3.26369
2090 1 115.668 16.3691 3.26369
2091 1 113.439 17.4792 3.26369
2092 1 115.111 18.0366 1.50496
2093 1 117.339 16.9266 1.50496
2094 1 116.782 18.594 3.26369
2095 1 121.239 16.374 3.26369
2096 1 119.011 17.484 3.26369
2097 1 120.682 18.0414 1.50496
2098 1 122.911 16.9314 1.50496
2099 1 122.353 18.5988 3.26369
2100 1 124.582 17.4888 3.26369
2101 1 126.811 16.3788 3.26369
2102 1 126.253 18.0462 1.50496
2103 1 128.482 16.9361 1.50496
2104 1 127.925 18.6037 3.26369
2105 1 130.153 17.4936 3.26369
2106 1 132.381 16.3831 3.26369
2107 1 133.498 18.608 3.26369
2108 1 131.823 18.0521 1.50496
2109 1 134.047 16.9446 1.50496
2110 1 135.732 17.4971 3.26369
2111 1 137.981 16.3993 3.26369
2112 1 139.518 16.9414 1.50496
2113 1 139.519 18.7295 3.26369
2114 1 137.421 18.0635 1.50496
487 1 -4.89677 20.2643 1.50496
488 1 -4.48545 21.9601 3.26369
489 1 -3.35174 19.7028 3.26369
490 1 -1.67548 19.1655 1.50496
491 1 -2.7614 21.407 1.50496
492 1 -1.11623 20.8317 3.26369
493 1 0.554643 20.2771 1.50496
494 1 2.78437 21.3879 1.50496
495 1 1.11384 21.9448 3.26369
496 1 2.22717 19.7206 3.26369
497 1 3.89958 19.1638 1.50496
498 1 4.45605 20.831 3.26369
499 1 6.12773 20.2739 1.50496
500 1 8.3561 21.3842 1.50496
501 1 6.68466 21.9414 3.26369
502 1 7.79901 19.7167 3.26369
503 1 9.4703 19.1595 1.50496
504 1 11.6988 20.2699 1.50496
505 1 10.0274 20.8271 3.26369
506 1 13.9272 21.3803 1.50496
507 1 12.2559 21.9374 3.26369
508 1 13.3701 19.7127 3.26369
509 1 15.0414 19.1556 1.50496
510 1 17.2699 20.2659 1.50496
511 1 15.5986 20.8231 3.26369
512 1 20.6126 19.1516 1.50496
513 1 19.4984 21.3763 1.50496
514 1 17.827 21.9335 3.26369
515 1 18.9412 19.7088 3.26369
516 1 22.841 20.262 1.50496
517 1 23.3982 21.9295 3.26369
518 1 21.1697 20.8191 3.26369
519 1 26.1837 19.1477 1.50496
520 1 25.0695 21.3723 1.50496
521 1 24.5124 19.7048 3.26369
522 1 28.4122 20.258 1.50496
523 1 26.7408 20.8152 3.26369
524 1 28.9693 21.9255 3.26369
525 1 31.7549 19.1437 1.50496
526 1 30.6406 21.3684 1.50496
527 1 30.0835 19.7009 3.26369
528 1 32.312 20.8112 3.26369
529 1 33.9833 20.2541 1.50496
530 1 34.5404 21.9216 3.26369
531 1 37.326 19.1398 1.50496
532 1 36.2118 21.3644 1.50496
533 1 35.6547 19.6969 3.26369
534 1 37.8831 20.8073 3.26369
535 1 39.5544 20.2501 1.50496
536 1 40.1116 21.9176 3.26369
537 1 41.2258 19.693 3.26369
538 1 42.8971 19.1358 1.50496
539 1 41.7829 21.3605 1.50496
540 1 43.4542 20.8033 3.26369
541 1 45.1256 20.2462 1.50496
542 1 47.354 21.3565 1.50496
543 1 45.6827 21.9137 3.26369
544 1 46.7969 19.689 3.26369
545 1 48.4683 19.1318 1.50496
546 1 49.0254 20.7993 3.26369
547 1 50.6967 20.2422 1.50496
548 1 52.9252 21.3525 1.50496
549 1 51.2538 21.9097 3.26369
550 1 52.3681 19.685 3.26369
551 1 54.0394 19.1279 1.50496
552 1 56.2679 20.2382 1.50496
553 1 54.5965 20.7954 3.26369
554 1 58.4963 21.3486 1.50496
555 1 56.825 21.9057 3.26369
556 1 57.9392 19.6811 3.26369
557 1 59.6106 19.1239 1.50496
558 1 61.839 20.2343 1.50496
559 1 60.1677 20.7914 3.26369
560 1 65.1813 19.1197 1.50496
561 1 64.0676 21.3447 1.50496
562 1 62.3962 21.9018 3.26369
563 1 63.5102 19.6771 3.26369
564 1 67.967 21.8984 3.26369
565 1 67.4085 20.2293 1.50496
566 1 65.7386 20.7875 3.26369
567 1 69.0833 19.6736 3.26369
568 1 69.6324 21.3371 1.50496
569 1 70.7563 19.118 1.50496
570 1 71.3169 20.7849 3.26369
571 1 73.0069 20.2189 1.50496
572 1 73.5663 21.8831 3.26369
2115 1 75.1034 19.554 3.26369
2116 1 75.1038 21.3421 1.50496
2117 1 76.641 21.8841 3.26369
2118 1 79.4514 19.1195 1.50496
2119 1 77.2009 20.22 1.50496
2120 1 78.8906 20.7864 3.26369
2121 1 81.1244 19.6754 3.26369
2122 1 82.7992 20.2314 1.50496
2123 1 82.2407 21.9004 3.26369
2124 1 80.5753 21.3388 1.50496
2125 1 85.0265 19.1221 1.50496
2126 1 84.4692 20.7899 3.26369
2127 1 86.6975 19.6798 3.26369
2128 1 88.3688 20.2372 1.50496