ITEM: TIMESTEP
13225
ITEM: NUMBER OF ATOMS
2927
ITEM: BOX BOUNDS pp pp pp
-2.0174776239694991e+00 1.3559208562396901e+02
1.7541432723851027e-02 2.2244893567276108e+01
7.8240202608196047e-03 1.0552175979739211e+01
ITEM: ATOMS id type x y z c_eng
1 1 -0.113002 2.92391 2.08989 -4.24515
2 1 -1.74775 2.40785 0.332502 -4.18994
3 1 0.470253 1.24327 0.332502 -4.31837
4 1 -1.25181 0.682379 2.08989 -4.24872
5 1 1.99137 1.77596 2.08989 -4.15687
6 1 3.52437 1.19749 0.332502 -4.35604
7 1 4.09932 2.85777 2.08989 -4.35404
8 1 5.26044 0.631189 2.08989 -4.40473
9 1 5.7854 2.27719 0.332502 -4.44291
10 1 7.47401 1.71306 2.08989 -4.44419
11 1 9.14241 1.13952 0.332502 -4.4506
427 1 6.90863 0.0441049 0.332502 -4.45234
12 1 9.70174 2.80341 2.08989 -4.44876
14 1 10.8158 0.570236 2.08989 -4.45
15 1 11.3746 2.23287 0.332502 -4.44992
16 1 13.0484 1.66327 2.08989 -4.44988
17 1 14.7226 1.09378 0.332502 -4.44984
18 1 15.2807 2.7562 2.08989 -4.44984
20 1 16.3968 0.524262 2.08989 -4.4498
21 1 16.9548 2.18666 0.332502 -4.44982
22 1 18.629 1.61711 2.08989 -4.44981
24 1 20.3031 1.04755 0.332502 -4.44981
26 1 20.8612 2.70997 2.08989 -4.44981
25 1 21.9773 0.47799 2.08989 -4.44981
27 1 22.5353 2.14042 0.332502 -4.44981
28 1 24.2095 1.57086 2.08989 -4.44981
30 1 25.8836 1.0013 0.332502 -4.44981
31 1 26.4417 2.66372 2.08989 -4.44981
32 1 27.5578 0.431743 2.08989 -4.44981
33 1 28.1158 2.09417 0.332502 -4.44981
34 1 29.79 1.52461 2.08989 -4.44981
35 1 30.348 3.18704 0.332502 -4.44981
36 1 31.4641 0.955056 0.332502 -4.44982
37 1 32.0222 2.61748 2.08989 -4.44982
38 1 33.6963 2.04793 0.332502 -4.44982
39 1 33.1382 0.385497 2.08989 -4.44982
40 1 35.3704 1.47837 2.08989 -4.44982
41 1 35.9285 3.14081 0.332502 -4.44982
42 1 37.0446 0.908809 0.332502 -4.44982
43 1 37.6027 2.57125 2.08989 -4.44982
45 1 38.7187 0.339237 2.08989 -4.44982
44 1 39.2768 2.00169 0.332502 -4.44982
46 1 40.9509 1.43212 2.08989 -4.44982
48 1 41.509 3.09458 0.332502 -4.44982
47 1 42.6249 0.862527 0.332502 -4.44982
49 1 43.1831 2.525 2.08989 -4.44982
50 1 44.299 0.292919 2.08989 -4.44981
51 1 44.8571 1.95541 0.332502 -4.44982
52 1 46.5311 1.38578 2.08989 -4.44982
54 1 47.0893 3.04829 0.332502 -4.44982
53 1 48.2051 0.816134 0.332502 -4.44981
55 1 48.7632 2.47864 2.08989 -4.44982
56 1 49.8791 0.24647 2.08989 -4.4498
57 1 50.4371 1.90894 0.332502 -4.44981
58 1 52.1111 1.33922 2.08991 -4.44979
61 1 52.6691 3.0017 0.332502 -4.44979
59 1 53.7851 0.76952 0.332502 -4.44983
60 1 54.343 2.43185 2.08993 -4.44974
62 1 56.0171 1.86212 0.332502 -4.4498
476 1 55.4593 0.199876 2.08998 -4.44989
63 1 57.6917 1.29254 2.08987 -4.45019
64 1 59.3643 0.721803 0.332502 -4.4498
66 1 58.2493 2.95452 0.332502 -4.44986
65 1 59.925 2.38616 2.08974 -4.45145
67 1 61.5934 1.81568 0.332502 -4.44673
483 1 61.0361 0.150267 2.08922 -4.44693
68 1 63.259 1.24168 2.08797 -4.4128
70 1 64.9627 0.662436 0.332502 -4.2322
71 1 63.8184 2.90841 0.332502 -4.42092
69 1 65.4812 2.3138 2.08777 -4.29603
2859 1 67.101 1.76896 0.332502 -4.20616
1887 1 68.6825 1.20048 2.08486 -4.29167
2442 1 69.3209 2.92041 0.332502 -4.34673
1468 1 70.8397 2.3304 2.09405 -4.15975
2863 1 70.4529 0.656987 0.332502 -4.33501
1889 1 71.9802 0.0658083 2.08636 -4.14785
1470 1 73.0951 2.26652 2.08999 -4.16796
2866 1 73.5238 0.566609 0.332502 -4.34654
1893 1 75.2323 1.10649 2.09043 -4.40748
2447 1 74.643 2.8156 0.332502 -4.37686
2870 1 76.8764 1.67092 0.332502 -4.45236
1475 1 78.5467 2.21492 2.08995 -4.45048
2872 1 79.1062 0.54449 0.332502 -4.45046
1899 1 80.776 1.09056 2.08998 -4.45008
2452 1 80.2189 2.76068 0.332502 -4.45001
2876 1 82.4472 1.63674 0.332502 -4.44989
1482 1 84.1184 2.18307 2.08989 -4.44975
2877 1 84.6754 0.512852 0.332502 -4.44984
2458 1 85.7892 2.72951 0.332502 -4.44981
1904 1 86.3464 1.05919 2.08989 -4.4498
2882 1 88.0173 1.60555 0.332502 -4.44981
1488 1 89.6882 2.15185 2.08989 -4.44982
2883 1 90.2454 0.481567 0.332502 -4.44982
2465 1 91.3593 2.6981 0.332502 -4.44982
1910 1 91.9164 1.02785 2.08989 -4.44982
2887 1 93.5875 1.5741 0.332502 -4.44982
1493 1 95.2586 2.12034 2.08989 -4.44982
2890 1 95.8157 0.450109 0.332502 -4.44982
1917 1 97.4868 0.996347 2.08989 -4.44982
2471 1 96.9297 2.66656 0.332502 -4.44982
2893 1 99.1579 1.54258 0.332502 -4.44982
1499 1 100.829 2.0888 2.08989 -4.44982
2477 1 102.5 2.63502 0.332502 -4.44982
2896 1 101.386 0.418596 0.332502 -4.44982
1923 1 103.057 0.964824 2.08989 -4.44982
2900 1 104.728 1.51105 0.332502 -4.44982
1503 1 104.171 3.18125 2.08989 -4.44982
1505 1 106.399 2.05728 2.08989 -4.44982
2483 1 108.071 2.60351 0.332502 -4.44982
2901 1 106.956 0.38708 0.332502 -4.44982
1927 1 108.628 0.933309 2.08989 -4.44982
2904 1 110.299 1.47954 0.332502 -4.44982
1509 1 109.742 3.14974 2.08989 -4.44982
1512 1 111.97 2.02577 2.08989 -4.44982
1932 1 114.198 0.901804 2.08989 -4.44982
2489 1 113.641 2.572 0.332502 -4.44982
2906 1 112.527 0.355572 0.332502 -4.44982
2909 1 115.869 1.44804 0.332502 -4.44982
1518 1 117.54 1.99427 2.08989 -4.44982
1515 1 115.312 3.11824 2.08989 -4.44982
1937 1 119.768 0.870301 2.08989 -4.44982
2495 1 119.211 2.54051 0.332502 -4.44981
2911 1 118.097 0.324068 0.332502 -4.44982
1522 1 120.883 3.08675 2.08989 -4.44981
1524 1 123.111 1.96281 2.08989 -4.44979
2915 1 121.44 1.41656 0.332502 -4.4498
2916 1 123.668 0.292624 0.332502 -4.44977
1942 1 125.339 0.838941 2.08989 -4.44971
2501 1 124.782 2.50894 0.332502 -4.44988
1528 1 126.453 3.05495 2.08989 -4.45009
1530 1 128.683 1.93014 2.08989 -4.45099
2920 1 127.011 1.38488 0.332502 -4.45
2921 1 129.24 0.260898 0.332502 -4.45023
1947 1 130.915 0.803172 2.08989 -4.44993
2507 1 130.348 2.47807 0.332502 -4.44647
2926 1 132.568 1.35808 0.332502 -4.42145
1534 1 132.014 3.02888 2.08989 -4.41254
1949 1 134.231 1.93384 2.08989 -4.29412
2925 1 134.766 0.178663 0.332502 -4.19289
72 1 -0.715277 4.55739 0.332502 -4.1622
73 1 0.874692 5.1029 2.08989 -4.12212
74 1 -1.25181 6.23922 2.08989 -4.24872
75 1 1.98948 3.5572 0.332502 -4.48515
76 1 3.12321 5.06391 2.08989 -4.1585
77 1 4.66874 4.49045 0.332502 -4.37744
78 1 5.26044 6.18803 2.08989 -4.40473
80 1 6.34976 3.93995 2.08989 -4.43718
79 1 6.90862 5.60094 0.332502 -4.45234
13 1 8.02402 3.37138 0.332502 -4.45016
81 1 8.58264 5.0339 2.08989 -4.45011
82 1 10.2576 4.46477 0.332502 -4.45017
83 1 10.8158 6.12707 2.08989 -4.45
84 1 12.4902 5.55772 0.332502 -4.44989
85 1 11.9328 3.8956 2.08989 -4.44955
19 1 13.6067 3.3258 0.332502 -4.44981
86 1 14.1647 4.98828 2.08989 -4.44974
87 1 15.8388 4.41866 0.332502 -4.44981
88 1 16.3968 6.0811 2.08989 -4.4498
89 1 17.5129 3.84908 2.08989 -4.44982
90 1 18.0709 5.51152 0.332502 -4.44981
23 1 19.187 3.27953 0.332502 -4.44982
91 1 19.7451 4.94195 2.08989 -4.44982
92 1 21.4192 4.3724 0.332502 -4.44982
93 1 21.9773 6.03482 2.08989 -4.44981
94 1 23.0934 3.80284 2.08989 -4.44981
95 1 23.6514 5.46526 0.332502 -4.44981
29 1 24.7675 3.23328 0.332502 -4.44981
96 1 25.3256 4.8957 2.08989 -4.44981
97 1 26.9997 4.32615 0.332502 -4.44981
98 1 27.5577 5.98857 2.08989 -4.44981
100 1 28.6739 3.75659 2.08989 -4.44981
101 1 29.2319 5.41901 0.332502 -4.44981
102 1 30.9061 4.84946 2.08989 -4.44981
103 1 32.5802 4.27991 0.332502 -4.44981
104 1 33.1383 5.94233 2.08989 -4.44981
106 1 34.8124 5.37278 0.332502 -4.44981
107 1 34.2544 3.71036 2.08989 -4.44982
108 1 36.4866 4.80323 2.08989 -4.44982
110 1 38.1607 4.23369 0.332502 -4.44982
111 1 38.7188 5.89611 2.08989 -4.44982
112 1 39.8349 3.66414 2.08989 -4.44982
113 1 40.393 5.32658 0.332502 -4.44982
114 1 42.0671 4.75703 2.08989 -4.44982
116 1 43.7412 4.18748 0.332502 -4.44982
117 1 44.2994 5.84994 2.08989 -4.44982
118 1 45.4153 3.6179 2.08989 -4.44982
119 1 45.9735 5.28039 0.332502 -4.44982
120 1 47.6475 4.7108 2.08989 -4.44982
122 1 49.3215 4.14117 0.332502 -4.44982
123 1 49.8798 5.80371 2.08989 -4.44982
124 1 51.5537 5.23404 0.332502 -4.44983
125 1 50.9953 3.57148 2.0899 -4.44982
126 1 53.2275 4.6643 2.08992 -4.44984
127 1 53.7859 6.32691 0.332502 -4.44984
128 1 54.901 4.09439 0.332502 -4.44976
129 1 55.4596 5.75718 2.08994 -4.44993
130 1 57.1325 5.18705 0.332502 -4.44974
131 1 56.5746 3.5243 2.08993 -4.44963
132 1 58.8054 4.61669 2.08998 -4.44942
134 1 59.3632 6.28008 0.332502 -4.44971
133 1 60.481 4.04737 0.332502 -4.44948
135 1 61.0338 5.70916 2.09025 -4.4468
136 1 62.1622 3.48367 2.08979 -4.45123
137 1 62.7093 5.14065 0.332502 -4.4344
138 1 64.4121 4.58609 2.09037 -4.33645
140 1 64.954 6.22255 0.332502 -4.22862
139 1 66.0311 4.05173 0.332502 -4.21118
1467 1 67.6474 3.4971 2.09053 -4.28366
2512 1 68.1819 5.13805 0.332502 -4.21513
1465 1 69.8849 4.54662 2.09522 -4.31145
2514 1 70.4502 6.20371 0.332502 -4.34046
1540 1 71.9776 5.6194 2.09131 -4.15133
2444 1 71.9906 3.82966 0.332502 -4.49593
1471 1 74.0653 4.45755 2.09083 -4.36352
2518 1 73.52 6.12151 0.332502 -4.34794
2448 1 75.7596 5.00967 0.332502 -4.44275
1474 1 76.3166 3.3404 2.09042 -4.43925
1546 1 77.4407 5.55173 2.09009 -4.4452
2451 1 77.9902 3.88468 0.332502 -4.44979
1478 1 79.6639 4.43008 2.08991 -4.44887
2523 1 79.1049 6.10219 0.332502 -4.45054
2454 1 81.333 4.97759 0.332502 -4.44988
1480 1 81.8906 3.3068 2.08991 -4.44956
1551 1 83.0034 5.52401 2.08989 -4.4499
2456 1 83.5611 3.85349 0.332502 -4.44981
2528 1 84.6744 6.07021 0.332502 -4.44985
1484 1 85.2318 4.39989 2.08989 -4.44985
1485 1 87.46 3.27586 2.08989 -4.44983
2461 1 86.9028 4.94615 0.332502 -4.44983
1556 1 88.5739 5.49237 2.08989 -4.44982
2462 1 89.131 3.82212 0.332502 -4.44982
2533 1 90.245 6.03857 0.332502 -4.44982
1489 1 90.8021 4.36835 2.08989 -4.44982
1492 1 93.0304 3.24434 2.08989 -4.44982
2466 1 92.4732 4.91456 0.332502 -4.44982
1563 1 94.1444 5.46076 2.08989 -4.44982
1495 1 96.3726 4.33677 2.08989 -4.44982
2469 1 94.7015 3.79055 0.332502 -4.44982
2539 1 95.8156 6.00696 0.332502 -4.44982
1498 1 98.6008 3.21278 2.08989 -4.44982
2472 1 98.0438 4.88298 0.332502 -4.44982
1568 1 99.7149 5.42919 2.08989 -4.44982
2475 1 100.272 3.759 0.332502 -4.44982
1501 1 101.943 4.30522 2.08989 -4.44982
2545 1 101.386 5.97541 0.332502 -4.44982
1574 1 105.285 5.39767 2.08989 -4.44982
2479 1 103.614 4.85144 0.332502 -4.44982
2481 1 105.842 3.72747 0.332502 -4.44982
1507 1 107.514 4.2737 2.08989 -4.44982
2551 1 106.957 5.9439 0.332502 -4.44982
2485 1 109.185 4.81993 0.332502 -4.44982
1580 1 110.856 5.36616 2.08989 -4.44982
2486 1 111.413 3.69597 0.332502 -4.44982
1513 1 113.084 4.2422 2.08989 -4.44982
2557 1 112.527 5.9124 0.332502 -4.44982
2492 1 114.755 4.78844 0.332502 -4.44982
1586 1 116.426 5.33467 2.08989 -4.44982
2491 1 116.983 3.66447 0.332502 -4.44982
1520 1 118.654 4.21071 2.08989 -4.44982
2496 1 120.326 4.75693 0.332502 -4.44983
2563 1 118.097 5.8809 0.332502 -4.44982
1592 1 121.997 5.30316 2.08989 -4.44983
2498 1 122.554 3.63295 0.332502 -4.44984
2569 1 123.668 5.84946 0.332502 -4.44977
1526 1 124.225 4.17914 2.08989 -4.44988
2502 1 125.895 4.72558 0.332502 -4.44969
1598 1 127.566 5.27216 2.08989 -4.44956
2504 1 128.123 3.60183 0.332502 -4.44957
2575 1 129.24 5.81774 0.332502 -4.45023
1532 1 129.793 4.14918 2.08989 -4.44682
2508 1 131.468 4.69281 0.332502 -4.43607
1601 1 130.915 6.36001 2.08989 -4.44993
1606 1 133.156 5.22819 2.08989 -4.3377
2510 1 133.727 3.57603 0.332502 -4.2371
2578 1 134.766 5.7355 0.332502 -4.19289
141 1 0.470253 6.80011 0.332502 -4.31837
142 1 -0.113002 8.48075 2.08989 -4.24515
143 1 -1.74775 7.96469 0.332502 -4.18994
144 1 3.52437 6.75433 0.332502 -4.35604
145 1 1.99137 7.3328 2.08989 -4.15687
146 1 1.98949 9.11404 0.332502 -4.48515
147 1 4.09932 8.41461 2.08989 -4.35404
148 1 5.7854 7.83403 0.332502 -4.44291
149 1 6.34976 9.49679 2.08989 -4.43718
150 1 9.14241 6.69636 0.332502 -4.4506
151 1 7.47401 7.2699 2.08989 -4.44419
152 1 8.02402 8.92822 0.332502 -4.45016
153 1 9.70174 8.36025 2.08989 -4.44876
154 1 11.3746 7.78971 0.332502 -4.44992
155 1 11.9328 9.45244 2.08989 -4.44955
156 1 13.0484 7.22011 2.08989 -4.44988
157 1 14.7226 6.65062 0.332502 -4.44984
158 1 13.6067 8.88263 0.332502 -4.44981
159 1 15.2807 8.31304 2.08989 -4.44984
160 1 16.9548 7.7435 0.332502 -4.44982
161 1 17.5129 9.40592 2.08989 -4.44982
162 1 18.629 7.17395 2.08989 -4.44981
163 1 20.3031 6.60438 0.332502 -4.44981
164 1 19.187 8.83636 0.332502 -4.44982
165 1 20.8612 8.26681 2.08989 -4.44981
166 1 22.5353 7.69724 0.332502 -4.44981
167 1 23.0933 9.35967 2.08989 -4.44981
169 1 24.2094 7.12768 2.08989 -4.44981
168 1 24.7675 8.79011 0.332502 -4.44981
99 1 25.8836 6.55812 0.332502 -4.44981
170 1 26.4416 8.22055 2.08989 -4.44981
171 1 28.1158 7.65099 0.332502 -4.44981
172 1 28.6738 9.31341 2.08989 -4.44981
173 1 29.7899 7.08143 2.08989 -4.44981
174 1 30.348 8.74385 0.332502 -4.44981
105 1 31.4641 6.51188 0.332502 -4.44981
175 1 32.0221 8.17429 2.08989 -4.44981
176 1 33.6963 7.60474 0.332502 -4.44981
177 1 34.2543 9.26715 2.08989 -4.44981
178 1 35.3705 7.03519 2.08989 -4.44981
179 1 35.9285 8.6976 0.332502 -4.44981
109 1 37.0446 6.46565 0.332502 -4.44982
180 1 37.6027 8.12806 2.08989 -4.44981
181 1 39.2768 7.55853 0.332502 -4.44981
182 1 39.8349 9.22093 2.08989 -4.44981
183 1 40.951 6.989 2.08989 -4.44982
184 1 41.5091 8.65141 0.332502 -4.44981
115 1 42.6252 6.41947 0.332502 -4.44982
185 1 43.1833 8.08189 2.08989 -4.44982
186 1 44.8575 7.51238 0.332502 -4.44982
187 1 45.4156 9.17478 2.08989 -4.44982
188 1 46.5317 6.94286 2.08989 -4.44983
189 1 47.0898 8.60529 0.332502 -4.44982
121 1 48.2058 6.37331 0.332502 -4.44983
190 1 48.764 8.03579 2.08989 -4.44983
191 1 50.4381 7.46624 0.332502 -4.44983
192 1 50.9964 9.12876 2.08988 -4.44985
194 1 52.6705 8.55921 0.332502 -4.44983
195 1 52.112 6.89661 2.0899 -4.44982
196 1 54.3443 7.98956 2.08989 -4.44979
197 1 56.0182 7.41986 0.332502 -4.44987
198 1 56.5764 9.08263 2.0898 -4.44968
200 1 57.6918 6.85045 2.09 -4.45024
201 1 58.2505 8.51303 0.332502 -4.44987
202 1 59.9249 7.94481 2.09004 -4.45142
204 1 61.5921 7.37349 0.332502 -4.44695
205 1 62.162 9.04174 2.08952 -4.45103
206 1 63.2563 6.79985 2.09097 -4.41245
207 1 63.8163 8.46352 0.332502 -4.41997
208 1 65.4799 7.86707 2.09021 -4.29734
1608 1 67.6438 9.05132 2.08514 -4.28025
2511 1 67.095 7.31843 0.332502 -4.20551
1538 1 68.6766 6.75514 2.09127 -4.2929
2583 1 69.3079 8.47078 0.332502 -4.33923
1541 1 70.8348 7.8891 2.08492 -4.16233
2586 1 71.9916 9.39259 0.332502 -4.49378
1542 1 73.0913 7.82088 2.0886 -4.16905
1544 1 75.2316 6.66533 2.08977 -4.40706
2588 1 74.6399 8.37262 0.332502 -4.37731
1616 1 76.3136 8.89931 2.08945 -4.43906
2520 1 76.8755 7.22949 0.332502 -4.45167
1547 1 78.5449 7.77322 2.08981 -4.45051
2593 1 77.9876 9.44342 0.332502 -4.44957
1549 1 80.7747 6.64837 2.08985 -4.45008
2594 1 80.2171 8.31865 0.332502 -4.45009
1622 1 81.8891 8.86446 2.08987 -4.44962
2525 1 82.4459 7.19437 0.332502 -4.44988
1552 1 84.1173 7.74043 2.08989 -4.44977
2599 1 83.5601 9.41075 0.332502 -4.44982
2600 1 85.7884 8.28663 0.332502 -4.44982
1554 1 86.3455 6.61639 2.08989 -4.44981
1627 1 87.4596 8.83278 2.0899 -4.44983
2530 1 88.0167 7.16259 0.332502 -4.44982
1557 1 89.6879 7.70876 2.08989 -4.44982
2604 1 89.1309 9.37891 0.332502 -4.44982
2536 1 91.3591 8.25493 0.332502 -4.44982
1559 1 91.9162 6.58475 2.08989 -4.44982
1633 1 93.0303 8.8011 2.08989 -4.44982
2535 1 93.5874 7.13094 0.332502 -4.44982
1562 1 95.2585 7.67713 2.08989 -4.44982
2609 1 94.7016 9.3473 0.332502 -4.44982
1565 1 97.4867 6.55316 2.08989 -4.44982
2542 1 96.9297 8.22334 0.332502 -4.44982
1638 1 98.6009 8.76955 2.08989 -4.44982
2541 1 99.1579 7.09937 0.332502 -4.44982
2615 1 100.272 9.31578 0.332502 -4.44982
1569 1 100.829 7.64559 2.08989 -4.44982
2546 1 102.5 8.19182 0.332502 -4.44982
1572 1 103.057 6.52163 2.08989 -4.44982
1642 1 104.171 8.73805 2.08989 -4.44982
2548 1 104.728 7.06786 0.332502 -4.44982
2620 1 105.842 9.28429 0.332502 -4.44982
1575 1 106.399 7.61409 2.08989 -4.44982
2552 1 108.071 8.16032 0.332502 -4.44982
1578 1 108.628 6.49013 2.08989 -4.44982
1647 1 109.742 8.70656 2.08989 -4.44982
2554 1 110.299 7.03636 0.332502 -4.44982
2625 1 111.413 9.2528 0.332502 -4.44982
1582 1 111.97 7.5826 2.08989 -4.44982
1584 1 114.198 6.45863 2.08989 -4.44982
2558 1 113.641 8.12883 0.332502 -4.44982
1653 1 115.312 8.67507 2.08989 -4.44982
2560 1 115.869 7.00487 0.332502 -4.44982
2630 1 116.983 9.22131 0.332502 -4.44982
1587 1 117.54 7.55111 2.08989 -4.44982
1589 1 119.768 6.42714 2.08989 -4.44982
2565 1 119.211 8.09735 0.332502 -4.44981
1659 1 120.883 8.64359 2.08989 -4.44981
1593 1 123.111 7.51965 2.08989 -4.44979
2567 1 121.44 6.97339 0.332502 -4.4498
2636 1 122.554 9.18979 0.332502 -4.44984
1595 1 125.339 6.39578 2.08989 -4.44971
2571 1 124.782 8.06578 0.332502 -4.44988
1665 1 126.453 8.61179 2.08989 -4.45009
1599 1 128.683 7.48698 2.08989 -4.45099
2573 1 127.011 6.94172 0.332502 -4.45
2642 1 128.123 9.15867 0.332502 -4.44957
1671 1 132.014 8.58572 2.08989 -4.41254
2577 1 130.348 8.03491 0.332502 -4.44647
2581 1 132.568 6.91492 0.332502 -4.42145
1605 1 134.231 7.49068 2.08989 -4.29412
2648 1 133.727 9.13287 0.332502 -4.2371
210 1 -0.715276 10.1142 0.332502 -4.1622
211 1 0.874694 10.6597 2.08989 -4.12212
212 1 0.470254 12.3569 0.332502 -4.31837
213 1 -1.25181 11.7961 2.08989 -4.24872
214 1 3.52437 12.3112 0.332502 -4.35604
215 1 3.12321 10.6208 2.08989 -4.1585
217 1 4.66874 10.0473 0.332502 -4.37744
218 1 5.26044 11.7449 2.08989 -4.40473
219 1 6.90863 11.1578 0.332502 -4.45234
221 1 9.14241 12.2532 0.332502 -4.4506
222 1 8.58264 10.5907 2.08989 -4.45011
223 1 10.2576 10.0216 0.332502 -4.45017
224 1 10.8158 11.6839 2.08989 -4.45
225 1 12.4902 11.1146 0.332502 -4.44989
227 1 14.1647 10.5451 2.08989 -4.44974
229 1 14.7226 12.2075 0.332502 -4.44984
228 1 15.8388 9.9755 0.332502 -4.44981
230 1 16.3968 11.6379 2.08989 -4.4498
231 1 18.0709 11.0684 0.332502 -4.44981
233 1 19.7451 10.4988 2.08989 -4.44982
234 1 20.3031 12.1612 0.332502 -4.44981
235 1 21.4192 9.92923 0.332502 -4.44982
236 1 21.9773 11.5917 2.08989 -4.44981
237 1 23.6514 11.0221 0.332502 -4.44981
238 1 24.2094 12.6845 2.08989 -4.44981
239 1 25.3255 10.4525 2.08989 -4.44981
240 1 25.8836 12.115 0.332502 -4.44981
241 1 26.9997 9.88297 0.332502 -4.44981
242 1 27.5577 11.5454 2.08989 -4.44981
243 1 29.2319 10.9758 0.332502 -4.44981
244 1 29.7899 12.6383 2.08989 -4.44981
245 1 30.906 10.4063 2.08989 -4.44981
246 1 31.464 12.0687 0.332502 -4.44981
247 1 32.5801 9.83671 0.332502 -4.44981
248 1 33.1382 11.4991 2.08989 -4.44981
249 1 34.8123 10.9296 0.332502 -4.44981
251 1 35.3703 12.592 2.08989 -4.44981
250 1 36.4865 10.36 2.08989 -4.44981
252 1 37.0445 12.0224 0.332502 -4.44981
253 1 38.1607 9.79047 0.332502 -4.44981
254 1 38.7187 11.4529 2.08989 -4.44981
255 1 40.3929 10.8833 0.332502 -4.44981
258 1 40.9509 12.5457 2.08989 -4.44981
256 1 42.6251 11.9762 0.332502 -4.44981
257 1 42.0671 10.3138 2.08989 -4.44981
259 1 43.7413 9.74429 0.332502 -4.44981
260 1 44.2993 11.4067 2.08989 -4.44981
261 1 45.9736 10.8372 0.332502 -4.44981
262 1 46.5315 12.4995 2.0899 -4.44981
264 1 47.6479 10.2677 2.08989 -4.44982
263 1 48.2058 11.93 0.332502 -4.4498
193 1 49.3222 9.69822 0.332502 -4.44983
265 1 49.8802 11.3606 2.08989 -4.44981
266 1 51.5546 10.7912 0.332502 -4.44985
267 1 52.1125 12.4535 2.08987 -4.44979
268 1 53.2289 10.2218 2.08984 -4.4499
269 1 53.7871 11.8843 0.332502 -4.44989
199 1 54.9029 9.65232 0.332502 -4.44983
270 1 55.4617 11.3152 2.08968 -4.45005
271 1 57.1353 10.7457 0.332502 -4.44979
272 1 57.6954 12.4091 2.08921 -4.45053
273 1 58.8081 10.1757 2.08946 -4.44941
274 1 59.3682 11.8397 0.332502 -4.4497
203 1 60.4833 9.6061 0.332502 -4.44962
275 1 61.0385 11.2685 2.08839 -4.44659
276 1 62.7148 10.7001 0.332502 -4.43439
277 1 63.2643 12.3596 2.08632 -4.41121
278 1 64.972 11.7858 0.332502 -4.239
279 1 64.412 10.1414 2.08584 -4.33524
209 1 66.0288 9.60323 0.332502 -4.20835
2585 1 68.1711 10.7104 0.332502 -4.22136
1676 1 68.6684 12.3311 2.08721 -4.28337
1609 1 69.8792 10.1122 2.07291 -4.31378
2654 1 70.4552 11.8038 0.332502 -4.34678
1612 1 71.9695 11.1842 2.09172 -4.14941
1614 1 74.0583 10.0149 2.08956 -4.36614
2657 1 73.5141 11.6792 0.332502 -4.34577
1683 1 75.2238 12.2241 2.0891 -4.40907
2590 1 75.7546 10.568 0.332502 -4.44309
1617 1 77.4371 11.1105 2.08939 -4.44554
1620 1 79.6617 9.98819 2.08978 -4.44901
2663 1 79.1032 11.6599 0.332502 -4.45041
1690 1 80.774 12.2054 2.08992 -4.44999
2596 1 81.3317 10.535 0.332502 -4.44991
1623 1 83.0028 11.081 2.08992 -4.44989
2668 1 84.6743 11.6269 0.332502 -4.44983
1626 1 85.2312 9.95685 2.08991 -4.44984
1695 1 86.3457 12.173 2.0899 -4.4498
2603 1 86.9026 10.5029 0.332502 -4.44983
1630 1 88.5739 11.049 2.0899 -4.44981
2674 1 90.2452 11.5952 0.332502 -4.44982
1631 1 90.8021 9.92507 2.08989 -4.44982
1701 1 91.9164 12.1414 2.08989 -4.44982
2607 1 92.4734 10.4713 0.332502 -4.44982
1635 1 94.1446 11.0175 2.08989 -4.44982
2679 1 93.5876 12.6876 0.332502 -4.44982
1636 1 96.3727 9.89351 2.08989 -4.44982
2681 1 95.8158 11.5637 0.332502 -4.44982
1707 1 97.4869 12.1099 2.08989 -4.44982
2612 1 98.0439 10.4397 0.332502 -4.44982
2685 1 99.158 12.6562 0.332502 -4.44982
1639 1 99.715 10.986 2.08989 -4.44982
1641 1 101.943 9.86201 2.08989 -4.44982
2687 1 101.386 11.5322 0.332502 -4.44982
1714 1 103.057 12.0784 2.08989 -4.44982
1644 1 105.285 10.9545 2.08989 -4.44982
2618 1 103.614 10.4082 0.332502 -4.44982
2691 1 104.728 12.6247 0.332502 -4.44982
1646 1 107.514 9.83052 2.08989 -4.44982
2692 1 106.957 11.5007 0.332502 -4.44982
1720 1 108.628 12.047 2.08989 -4.44982
2623 1 109.185 10.3768 0.332502 -4.44982
1649 1 110.856 10.923 2.08989 -4.44982
2697 1 110.299 12.5932 0.332502 -4.44982
1651 1 113.084 9.79904 2.08989 -4.44982
1726 1 114.198 12.0155 2.08989 -4.44982
2698 1 112.527 11.4692 0.332502 -4.44982
2628 1 114.755 10.3453 0.332502 -4.44982
1654 1 116.426 10.8915 2.08989 -4.44982
2703 1 115.869 12.5617 0.332502 -4.44982
1656 1 118.654 9.76755 2.08989 -4.44982
1731 1 119.768 11.984 2.08989 -4.44982
2632 1 120.326 10.3138 0.332502 -4.44983
2633 1 118.097 11.4377 0.332502 -4.44982
1660 1 121.997 10.86 2.08989 -4.44983
2708 1 121.44 12.5302 0.332502 -4.4498
2639 1 123.668 11.4063 0.332502 -4.44977
1662 1 124.225 9.73598 2.08989 -4.44988
1736 1 125.339 11.9526 2.08989 -4.44971
2638 1 125.895 10.2824 0.332502 -4.44969
1667 1 127.566 10.829 2.08989 -4.44956
2643 1 129.24 11.3746 0.332502 -4.45023
2713 1 127.011 12.4986 0.332502 -4.45
1669 1 129.793 9.70602 2.08989 -4.44682
1741 1 130.915 11.9168 2.08989 -4.44993
2645 1 131.468 10.2496 0.332502 -4.43607
2719 1 132.568 12.4718 0.332502 -4.42145
1673 1 133.156 10.785 2.08989 -4.3377
2649 1 134.766 11.2923 0.332502 -4.19289
280 1 -0.113002 14.0376 2.08989 -4.24515
281 1 -0.715275 15.6711 0.332502 -4.1622
282 1 -1.74775 13.5215 0.332502 -4.18994
216 1 1.99138 12.8896 2.08989 -4.15687
283 1 1.98949 14.6709 0.332502 -4.48515
284 1 4.09932 13.9715 2.08989 -4.35404
285 1 4.66874 15.6041 0.332502 -4.37744
286 1 5.7854 13.3909 0.332502 -4.44291
287 1 6.34976 15.0536 2.08989 -4.43718
220 1 7.47402 12.8267 2.08989 -4.44419
288 1 8.02403 14.4851 0.332502 -4.45016
289 1 9.70174 13.9171 2.08989 -4.44876
290 1 10.2576 15.5784 0.332502 -4.45017
291 1 11.3746 13.3465 0.332502 -4.44992
292 1 11.9328 15.0093 2.08989 -4.44955
226 1 13.0484 12.7769 2.08989 -4.44988
293 1 13.6067 14.4395 0.332502 -4.44981
295 1 15.2807 13.8699 2.08989 -4.44984
294 1 15.8388 15.5323 0.332502 -4.44981
296 1 16.9548 13.3003 0.332502 -4.44982
297 1 17.5129 14.9628 2.08989 -4.44982
232 1 18.629 12.7308 2.08989 -4.44981
298 1 19.187 14.3932 0.332502 -4.44982
300 1 20.8612 13.8236 2.08989 -4.44981
299 1 21.4192 15.4861 0.332502 -4.44982
302 1 22.5353 13.2541 0.332502 -4.44981
303 1 23.0934 14.9165 2.08989 -4.44981
304 1 24.7675 14.3469 0.332502 -4.44981
306 1 26.9997 15.4398 0.332502 -4.44981
307 1 26.4416 13.7774 2.08989 -4.44981
308 1 28.1158 13.2078 0.332502 -4.44981
309 1 28.6738 14.8702 2.08989 -4.44981
310 1 30.3479 14.3007 0.332502 -4.44981
312 1 32.0221 13.7311 2.08989 -4.44981
313 1 32.5801 15.3935 0.332502 -4.44981
314 1 33.6962 13.1615 0.332502 -4.44981
315 1 34.2542 14.824 2.08989 -4.44981
316 1 35.9284 14.2544 0.332502 -4.44981
318 1 37.6025 13.6848 2.08989 -4.44981
319 1 38.1605 15.3472 0.332502 -4.44981
320 1 39.2767 13.1153 0.332502 -4.44981
321 1 39.8347 14.7777 2.08989 -4.44981
322 1 41.5088 14.2081 0.332502 -4.44981
323 1 42.0668 15.8705 2.08989 -4.44981
324 1 43.741 15.3009 0.332502 -4.44981
325 1 43.183 13.6386 2.08989 -4.44981
326 1 44.8573 13.069 0.332502 -4.44981
327 1 45.4152 14.7314 2.08989 -4.44981
328 1 47.0895 14.1619 0.332502 -4.44981
329 1 47.6473 15.8242 2.0899 -4.44981
330 1 48.7638 13.5924 2.08991 -4.44981
331 1 49.3216 15.2547 0.332502 -4.44982
332 1 50.4381 13.0229 0.332502 -4.44979
333 1 50.996 14.6853 2.08993 -4.44981
334 1 52.6702 14.1159 0.332502 -4.44975
336 1 53.2281 15.7782 2.08998 -4.44982
335 1 54.3448 13.5466 2.08978 -4.44973
337 1 54.9022 15.2089 0.332502 -4.44963
338 1 56.0201 12.9777 0.332502 -4.44995
339 1 56.577 14.6396 2.08941 -4.4495
340 1 58.2542 14.0712 0.332502 -4.45001
343 1 58.809 15.7321 2.08837 -4.44891
341 1 60.4915 15.1642 0.332502 -4.44909
342 1 59.9321 13.5043 2.08843 -4.45218
344 1 61.6014 12.9356 0.332502 -4.44575
345 1 62.1786 14.6027 2.09025 -4.452
346 1 63.8326 14.0308 0.332502 -4.41938
349 1 64.4577 15.6978 2.12256 -4.35069
347 1 65.4874 13.4324 2.09821 -4.28498
348 1 66.0305 15.1682 0.332502 -4.18726
1678 1 67.6285 14.644 2.1073 -4.2561
2650 1 67.1044 12.9116 0.332502 -4.20114
2652 1 69.3268 14.0552 0.332502 -4.36489
1746 1 69.8615 15.6592 2.13707 -4.2962
1680 1 70.8127 13.4573 2.14218 -4.16702
2722 1 71.9526 14.9271 0.332502 -4.48934
1681 1 73.0756 13.3823 2.08365 -4.17717
1750 1 74.0597 15.5697 2.08805 -4.36078
2659 1 74.635 13.9285 0.332502 -4.3748
1686 1 76.3135 14.4551 2.08911 -4.43808
2660 1 76.8721 12.7866 0.332502 -4.45189
1687 1 78.5442 13.33 2.08969 -4.45018
2730 1 77.9882 14.9992 0.332502 -4.4494
1756 1 79.6627 15.5439 2.09004 -4.44895
2664 1 80.2174 13.8751 0.332502 -4.44995
1691 1 81.8897 14.4207 2.08999 -4.44959
2667 1 82.4459 12.751 0.332502 -4.44986
1694 1 84.1176 13.2969 2.08993 -4.44976
2736 1 83.5609 14.967 0.332502 -4.44984
1763 1 85.2321 15.5132 2.0899 -4.44984
2671 1 85.7889 13.8431 0.332502 -4.44982
1697 1 87.4602 14.3893 2.08989 -4.44982
2673 1 88.0171 12.7191 0.332502 -4.44982
1700 1 89.6883 13.2653 2.08989 -4.44982
2741 1 89.1314 14.9355 0.332502 -4.44982
1769 1 90.8026 15.4817 2.08989 -4.44981
2677 1 91.3595 13.8115 0.332502 -4.44982
1703 1 93.0307 14.3578 2.08989 -4.44982
1705 1 95.2588 13.2339 2.08989 -4.44982
1774 1 96.3729 15.4503 2.08989 -4.44982
2747 1 94.7018 14.904 0.332502 -4.44982
2683 1 96.9299 13.7801 0.332502 -4.44982
1709 1 98.601 14.3264 2.08989 -4.44982
2754 1 100.272 14.8726 0.332502 -4.44982
1711 1 100.829 13.2024 2.08989 -4.44982
1781 1 101.943 15.4189 2.08989 -4.44982
2688 1 102.5 13.7486 0.332502 -4.44982
1715 1 104.171 14.2949 2.08989 -4.44982
2760 1 105.842 14.8411 0.332502 -4.44982
1718 1 106.4 13.1709 2.08989 -4.44982
1787 1 107.514 15.3874 2.08989 -4.44982
2694 1 108.071 13.7172 0.332502 -4.44982
1721 1 109.742 14.2634 2.08989 -4.44982
2766 1 111.413 14.8096 0.332502 -4.44982
1724 1 111.97 13.1394 2.08989 -4.44982
1793 1 113.084 15.3559 2.08989 -4.44982
2700 1 113.641 13.6857 0.332502 -4.44982
1728 1 115.312 14.2319 2.08989 -4.44982
2772 1 116.983 14.7782 0.332502 -4.44982
1729 1 117.54 13.1079 2.08989 -4.44982
1799 1 118.654 15.3244 2.08989 -4.44982
2705 1 119.211 13.6542 0.332502 -4.44981
2776 1 120.325 15.8706 0.332502 -4.44983
1733 1 120.883 14.2004 2.08989 -4.44981
1734 1 123.111 13.0765 2.08989 -4.44979
2778 1 122.554 14.7466 0.332502 -4.44984
1805 1 124.225 15.2928 2.08989 -4.44988
2710 1 124.782 13.6226 0.332502 -4.44988
1737 1 126.453 14.1686 2.08989 -4.45009
2781 1 125.895 15.8393 0.332502 -4.44969
1739 1 128.683 13.0438 2.08989 -4.45099
2784 1 128.123 14.7155 0.332502 -4.44957
1742 1 132.014 14.1426 2.08989 -4.41254
1811 1 129.793 15.2629 2.08989 -4.44682
2716 1 130.348 13.5918 0.332502 -4.44647
2787 1 131.468 15.8065 0.332502 -4.43607
1744 1 134.231 13.0475 2.08989 -4.29412
2789 1 133.727 14.6897 0.332502 -4.2371
350 1 0.874694 16.2166 2.08989 -4.12212
351 1 -1.25181 17.3529 2.08989 -4.24872
352 1 0.470254 17.9138 0.332502 -4.31837
354 1 3.12321 16.1776 2.08989 -4.1585
355 1 1.99138 18.4465 2.08989 -4.15687
356 1 3.52437 17.868 0.332502 -4.35604
357 1 5.26044 17.3017 2.08989 -4.40473
358 1 5.7854 18.9477 0.332502 -4.44291
359 1 6.90863 16.7146 0.332502 -4.45234
360 1 8.58264 16.1476 2.08989 -4.45011
361 1 7.47402 18.3836 2.08989 -4.44419
362 1 9.14241 17.81 0.332502 -4.4506
363 1 10.8158 17.2408 2.08989 -4.45
364 1 11.3746 18.9034 0.332502 -4.44992
365 1 12.4902 16.6714 0.332502 -4.44989
366 1 13.0484 18.3338 2.08989 -4.44988
367 1 14.1647 16.102 2.08989 -4.44974
368 1 14.7226 17.7643 0.332502 -4.44984
369 1 16.3968 17.1948 2.08989 -4.4498
370 1 16.9548 18.8572 0.332502 -4.44982
371 1 18.071 16.6252 0.332502 -4.44981
372 1 18.629 18.2876 2.08989 -4.44981
301 1 19.7451 16.0556 2.08989 -4.44982
373 1 20.3031 17.7181 0.332502 -4.44981
374 1 21.9773 17.1485 2.08989 -4.44981
375 1 22.5353 18.8109 0.332502 -4.44981
376 1 23.6514 16.5789 0.332502 -4.44981
377 1 24.2095 18.2414 2.08989 -4.44981
305 1 25.3255 16.0094 2.08989 -4.44981
378 1 25.8836 17.6718 0.332502 -4.44981
379 1 27.5577 17.1022 2.08989 -4.44981
380 1 28.1158 18.7647 0.332502 -4.44981
381 1 29.2319 16.5327 0.332502 -4.44981
382 1 29.7899 18.1951 2.08989 -4.44981
311 1 30.906 15.9631 2.08989 -4.44981
383 1 31.464 17.6255 0.332502 -4.44981
384 1 33.6962 18.7184 0.332502 -4.44981
385 1 33.1382 17.056 2.08989 -4.44981
386 1 34.8123 16.4864 0.332502 -4.44981
387 1 35.3703 18.1488 2.08989 -4.44981
317 1 36.4864 15.9168 2.08989 -4.44981
388 1 37.0444 17.5793 0.332502 -4.44981
390 1 38.7186 17.0097 2.08989 -4.44981
389 1 39.2766 18.6721 0.332502 -4.44981
392 1 40.3927 16.4401 0.332502 -4.44981
393 1 40.9507 18.1025 2.08989 -4.44981
394 1 42.6248 17.5329 0.332502 -4.44981
395 1 44.2989 16.9633 2.08989 -4.44981
396 1 44.8569 18.6258 0.332502 -4.44981
398 1 45.9731 16.3938 0.332502 -4.44981
399 1 46.531 18.0562 2.08989 -4.44981
400 1 48.2052 17.4866 0.332502 -4.44981
401 1 49.8795 16.917 2.08991 -4.44981
402 1 50.4373 18.5794 0.332502 -4.44981
403 1 51.5538 16.3476 0.332502 -4.44983
405 1 52.1115 18.0099 2.08995 -4.4498
406 1 53.7858 17.4405 0.332502 -4.44984