ITEM: TIMESTEP
292
ITEM: NUMBER OF ATOMS
4032
ITEM: BOX BOUNDS pp pp pp
6.0876285151510560e-04 1.3169414223714850e+02
1.2308146753912421e-04 2.6606234918532461e+01
1.0684353786105536e-04 2.3041675156462141e+01
ITEM: ATOMS id type x y z
1 1 3.13627 1.50333 1.4795
2 1 5.48794 1.50333 1.4795
3 1 12.5429 1.50333 1.4795
4 1 14.8946 1.50333 1.4795
5 1 21.9496 1.50333 1.4795
6 1 24.3013 1.50333 1.4795
7 1 31.3563 1.50333 1.4795
8 1 33.708 1.50333 1.4795
9 1 40.763 1.50333 1.4795
10 1 43.1147 1.50333 1.4795
11 1 50.1697 1.50333 1.4795
12 1 52.5213 1.50333 1.4795
13 1 59.5764 1.50333 1.4795
14 1 61.928 1.50333 1.4795
15 1 72.1186 1.50333 1.4795
16 1 74.4703 1.50333 1.4795
17 1 81.5253 1.50333 1.4795
18 1 83.8769 1.50333 1.4795
19 1 90.932 1.50333 1.4795
20 1 93.2836 1.50333 1.4795
21 1 100.339 1.50333 1.4795
22 1 102.69 1.50333 1.4795
23 1 109.745 1.50333 1.4795
24 1 112.097 1.50333 1.4795
25 1 119.152 1.50333 1.4795
26 1 121.504 1.50333 1.4795
27 1 128.559 1.50333 1.4795
28 1 130.91 1.50333 1.4795
29 1 0.000707491 3.72051 1.4795
30 1 2.35238 3.72051 1.4795
31 1 9.40739 3.72051 1.4795
32 1 11.7591 3.72051 1.4795
33 1 18.8141 3.72051 1.4795
34 1 21.1657 3.72051 1.4795
35 1 28.2207 3.72051 1.4795
36 1 30.5724 3.72051 1.4795
37 1 37.6274 3.72051 1.4795
38 1 39.9791 3.72051 1.4795
39 1 47.0341 3.72051 1.4795
40 1 49.3858 3.72051 1.4795
41 1 56.4408 3.72051 1.4795
42 1 58.7925 3.72051 1.4795
43 1 65.8475 3.72051 1.4795
44 1 68.1991 3.72051 1.4795
45 1 75.2542 3.72051 1.4795
46 1 77.6058 3.72051 1.4795
47 1 84.6608 3.72051 1.4795
48 1 87.0125 3.72051 1.4795
49 1 94.0675 3.72051 1.4795
50 1 96.4192 3.72051 1.4795
51 1 103.474 3.72051 1.4795
52 1 105.826 3.72051 1.4795
53 1 112.881 3.72051 1.4795
54 1 115.233 3.72051 1.4795
55 1 122.288 3.72051 1.4795
56 1 124.639 3.72051 1.4795
57 1 6.27183 5.93769 1.4795
58 1 8.6235 5.93769 1.4795
59 1 15.6785 5.93769 1.4795
60 1 18.0302 5.93769 1.4795
61 1 25.0852 5.93769 1.4795
62 1 27.4369 5.93769 1.4795
63 1 34.4919 5.93769 1.4795
64 1 36.8435 5.93769 1.4795
65 1 43.8986 5.93769 1.4795
66 1 46.2502 5.93769 1.4795
67 1 53.3052 5.93769 1.4795
68 1 55.6569 5.93769 1.4795
69 1 62.7119 5.93769 1.4795
70 1 65.0636 5.93769 1.4795
71 1 68.983 5.93769 1.4795
72 1 71.3347 5.93769 1.4795
73 1 78.3897 5.93769 1.4795
74 1 80.7414 5.93769 1.4795
75 1 87.7964 5.93769 1.4795
76 1 90.1481 5.93769 1.4795
77 1 97.2031 5.93769 1.4795
78 1 99.5547 5.93769 1.4795
79 1 106.61 5.93769 1.4795
80 1 108.961 5.93769 1.4795
81 1 116.016 5.93769 1.4795
82 1 118.368 5.93769 1.4795
83 1 125.423 5.93769 1.4795
84 1 127.775 5.93769 1.4795
85 1 3.13627 8.15486 1.4795
86 1 5.48794 8.15486 1.4795
87 1 12.5429 8.15486 1.4795
88 1 14.8946 8.15486 1.4795
89 1 21.9496 8.15486 1.4795
90 1 24.3013 8.15486 1.4795
91 1 31.3563 8.15486 1.4795
92 1 33.708 8.15486 1.4795
93 1 40.763 8.15486 1.4795
94 1 43.1147 8.15486 1.4795
95 1 50.1697 8.15486 1.4795
96 1 52.5213 8.15486 1.4795
97 1 59.5764 8.15486 1.4795
98 1 61.928 8.15486 1.4795
99 1 72.1186 8.15486 1.4795
100 1 74.4703 8.15486 1.4795
101 1 81.5253 8.15486 1.4795
102 1 83.8769 8.15486 1.4795
103 1 90.932 8.15486 1.4795
104 1 93.2836 8.15486 1.4795
105 1 100.339 8.15486 1.4795
106 1 102.69 8.15486 1.4795
107 1 109.745 8.15486 1.4795
108 1 112.097 8.15486 1.4795
109 1 119.152 8.15486 1.4795
110 1 121.504 8.15486 1.4795
111 1 128.559 8.15486 1.4795
112 1 130.91 8.15486 1.4795
113 1 0.000707491 10.372 1.4795
114 1 2.35238 10.372 1.4795
115 1 9.40739 10.372 1.4795
116 1 11.7591 10.372 1.4795
117 1 18.8141 10.372 1.4795
118 1 21.1657 10.372 1.4795
119 1 28.2207 10.372 1.4795
120 1 30.5724 10.372 1.4795
121 1 37.6274 10.372 1.4795
122 1 39.9791 10.372 1.4795
123 1 47.0341 10.372 1.4795
124 1 49.3858 10.372 1.4795
125 1 56.4408 10.372 1.4795
126 1 58.7925 10.372 1.4795
127 1 65.8475 10.372 1.4795
128 1 68.1991 10.372 1.4795
129 1 75.2542 10.372 1.4795
130 1 77.6058 10.372 1.4795
131 1 84.6608 10.372 1.4795
132 1 87.0125 10.372 1.4795
133 1 94.0675 10.372 1.4795
134 1 96.4192 10.372 1.4795
135 1 103.474 10.372 1.4795
136 1 105.826 10.372 1.4795
137 1 112.881 10.372 1.4795
138 1 115.233 10.372 1.4795
139 1 122.288 10.372 1.4795
140 1 124.639 10.372 1.4795
141 1 6.27183 12.5892 1.4795
142 1 8.6235 12.5892 1.4795
143 1 15.6785 12.5892 1.4795
144 1 18.0302 12.5892 1.4795
145 1 25.0852 12.5892 1.4795
146 1 27.4369 12.5892 1.4795
147 1 34.4919 12.5892 1.4795
148 1 36.8435 12.5892 1.4795
149 1 43.8986 12.5892 1.4795
150 1 46.2502 12.5892 1.4795
151 1 53.3052 12.5892 1.4795
152 1 55.6569 12.5892 1.4795
153 1 62.7119 12.5892 1.4795
154 1 65.0636 12.5892 1.4795
155 1 68.983 12.5892 1.4795
156 1 71.3347 12.5892 1.4795
157 1 78.3897 12.5892 1.4795
158 1 80.7414 12.5892 1.4795
159 1 87.7964 12.5892 1.4795
160 1 90.1481 12.5892 1.4795
161 1 97.2031 12.5892 1.4795
162 1 99.5547 12.5892 1.4795
163 1 106.61 12.5892 1.4795
164 1 108.961 12.5892 1.4795
165 1 116.016 12.5892 1.4795
166 1 118.368 12.5892 1.4795
167 1 125.423 12.5892 1.4795
168 1 127.775 12.5892 1.4795
169 1 3.13627 14.8064 1.4795
170 1 5.48794 14.8064 1.4795
171 1 12.5429 14.8064 1.4795
172 1 14.8946 14.8064 1.4795
173 1 21.9496 14.8064 1.4795
174 1 24.3013 14.8064 1.4795
175 1 31.3563 14.8064 1.4795
176 1 33.708 14.8064 1.4795
177 1 40.763 14.8064 1.4795
178 1 43.1147 14.8064 1.4795
179 1 50.1697 14.8064 1.4795
180 1 52.5213 14.8064 1.4795
181 1 59.5764 14.8064 1.4795
182 1 61.928 14.8064 1.4795
183 1 72.1186 14.8064 1.4795
184 1 74.4703 14.8064 1.4795
185 1 81.5253 14.8064 1.4795
186 1 83.8769 14.8064 1.4795
187 1 90.932 14.8064 1.4795
188 1 93.2836 14.8064 1.4795
189 1 100.339 14.8064 1.4795
190 1 102.69 14.8064 1.4795
191 1 109.745 14.8064 1.4795
192 1 112.097 14.8064 1.4795
193 1 119.152 14.8064 1.4795
194 1 121.504 14.8064 1.4795
195 1 128.559 14.8064 1.4795
196 1 130.91 14.8064 1.4795
197 1 0.000707491 17.0236 1.4795
198 1 2.35238 17.0236 1.4795
199 1 6.27183 19.2407 1.4795
200 1 9.40739 17.0236 1.4795
201 1 8.6235 19.2407 1.4795
202 1 11.7591 17.0236 1.4795
203 1 15.6785 19.2407 1.4795
204 1 18.8141 17.0236 1.4795
205 1 18.0302 19.2407 1.4795
206 1 21.1657 17.0236 1.4795
207 1 25.0852 19.2407 1.4795
208 1 28.2207 17.0236 1.4795
209 1 27.4369 19.2407 1.4795
210 1 30.5724 17.0236 1.4795
211 1 34.4919 19.2407 1.4795
212 1 37.6274 17.0236 1.4795
213 1 36.8435 19.2407 1.4795
214 1 39.9791 17.0236 1.4795
215 1 43.8986 19.2407 1.4795
216 1 47.0341 17.0236 1.4795
217 1 46.2502 19.2407 1.4795
218 1 49.3858 17.0236 1.4795
219 1 53.3052 19.2407 1.4795
220 1 56.4408 17.0236 1.4795
221 1 55.6569 19.2407 1.4795
222 1 58.7925 17.0236 1.4795
223 1 62.7119 19.2407 1.4795
224 1 65.0636 19.2407 1.4795
225 1 65.8475 17.0236 1.4795
226 1 68.1991 17.0236 1.4795
227 1 68.983 19.2407 1.4795
228 1 71.3347 19.2407 1.4795
229 1 75.2542 17.0236 1.4795
230 1 77.6058 17.0236 1.4795
231 1 78.3897 19.2407 1.4795
232 1 80.7414 19.2407 1.4795
233 1 84.6608 17.0236 1.4795
234 1 87.0125 17.0236 1.4795
235 1 87.7964 19.2407 1.4795
236 1 90.1481 19.2407 1.4795
237 1 94.0675 17.0236 1.4795
238 1 96.4192 17.0236 1.4795
239 1 97.2031 19.2407 1.4795
240 1 99.5547 19.2407 1.4795
241 1 103.474 17.0236 1.4795
242 1 105.826 17.0236 1.4795
243 1 106.61 19.2407 1.4795
244 1 108.961 19.2407 1.4795
245 1 112.881 17.0236 1.4795
246 1 115.233 17.0236 1.4795
247 1 116.016 19.2407 1.4795
248 1 118.368 19.2407 1.4795
249 1 122.288 17.0236 1.4795
250 1 124.639 17.0236 1.4795
251 1 125.423 19.2407 1.4795
252 1 127.775 19.2407 1.4795
253 1 3.13627 21.4579 1.4795
254 1 5.48794 21.4579 1.4795
255 1 12.5429 21.4579 1.4795
256 1 14.8946 21.4579 1.4795
257 1 21.9496 21.4579 1.4795
258 1 24.3013 21.4579 1.4795
259 1 31.3563 21.4579 1.4795
260 1 33.708 21.4579 1.4795
261 1 40.763 21.4579 1.4795
262 1 43.1147 21.4579 1.4795
263 1 50.1697 21.4579 1.4795
264 1 52.5213 21.4579 1.4795
265 1 59.5764 21.4579 1.4795
266 1 61.928 21.4579 1.4795
267 1 72.1186 21.4579 1.4795
268 1 74.4703 21.4579 1.4795
269 1 81.5253 21.4579 1.4795
270 1 83.8769 21.4579 1.4795
271 1 90.932 21.4579 1.4795
272 1 93.2836 21.4579 1.4795
273 1 100.339 21.4579 1.4795
274 1 102.69 21.4579 1.4795
275 1 109.745 21.4579 1.4795
276 1 112.097 21.4579 1.4795
277 1 119.152 21.4579 1.4795
278 1 121.504 21.4579 1.4795
279 1 128.559 21.4579 1.4795
280 1 130.91 21.4579 1.4795
281 1 0.000707491 23.6751 1.4795
282 1 2.35238 23.6751 1.4795
283 1 9.40739 23.6751 1.4795
284 1 11.7591 23.6751 1.4795
285 1 18.8141 23.6751 1.4795
286 1 21.1657 23.6751 1.4795
287 1 28.2207 23.6751 1.4795
288 1 30.5724 23.6751 1.4795
289 1 37.6274 23.6751 1.4795
290 1 39.9791 23.6751 1.4795
291 1 47.0341 23.6751 1.4795
292 1 49.3858 23.6751 1.4795
293 1 56.4408 23.6751 1.4795
294 1 58.7925 23.6751 1.4795
295 1 65.8475 23.6751 1.4795
296 1 68.1991 23.6751 1.4795
297 1 75.2542 23.6751 1.4795
298 1 77.6058 23.6751 1.4795
299 1 84.6608 23.6751 1.4795
300 1 87.0125 23.6751 1.4795
301 1 94.0675 23.6751 1.4795
302 1 96.4192 23.6751 1.4795
303 1 103.474 23.6751 1.4795
304 1 105.826 23.6751 1.4795
305 1 112.881 23.6751 1.4795
306 1 115.233 23.6751 1.4795
307 1 122.288 23.6751 1.4795
308 1 124.639 23.6751 1.4795
309 1 6.27183 25.8923 1.4795
310 1 8.6235 25.8923 1.4795
311 1 15.6785 25.8923 1.4795
312 1 18.0302 25.8923 1.4795
313 1 25.0852 25.8923 1.4795
314 1 27.4369 25.8923 1.4795
315 1 34.4919 25.8923 1.4795
316 1 36.8435 25.8923 1.4795
317 1 43.8986 25.8923 1.4795
318 1 46.2502 25.8923 1.4795
319 1 53.3052 25.8923 1.4795
320 1 55.6569 25.8923 1.4795
321 1 62.7119 25.8923 1.4795
322 1 65.0636 25.8923 1.4795
323 1 68.983 25.8923 1.4795
324 1 71.3347 25.8923 1.4795
325 1 78.3897 25.8923 1.4795
326 1 80.7414 25.8923 1.4795
327 1 87.7964 25.8923 1.4795
328 1 90.1481 25.8923 1.4795
329 1 97.2031 25.8923 1.4795
330 1 99.5547 25.8923 1.4795
331 1 106.61 25.8923 1.4795
332 1 108.961 25.8923 1.4795
333 1 116.016 25.8923 1.4795
334 1 118.368 25.8923 1.4795
335 1 125.423 25.8923 1.4795
336 1 127.775 25.8923 1.4795
337 1 0.000707491 0.394745 3.39963
338 1 2.35238 0.394745 3.39963
339 1 9.40739 0.394745 3.39963
340 1 11.7591 0.394745 3.39963
341 1 18.8141 0.394745 3.39963
342 1 21.1657 0.394745 3.39963
343 1 28.2207 0.394745 3.39963
344 1 30.5724 0.394745 3.39963
345 1 37.6274 0.394745 3.39963
346 1 39.9791 0.394745 3.39963
347 1 47.0341 0.394745 3.39963
348 1 49.3858 0.394745 3.39963
349 1 56.4408 0.394745 3.39963
350 1 58.7925 0.394745 3.39963
351 1 65.8475 0.394745 3.39963
352 1 68.1991 0.394745 3.39963
353 1 75.2542 0.394745 3.39963
354 1 77.6058 0.394745 3.39963
355 1 84.6608 0.394745 3.39963
356 1 87.0125 0.394745 3.39963
357 1 94.0675 0.394745 3.39963
358 1 96.4192 0.394745 3.39963
359 1 103.474 0.394745 3.39963
360 1 105.826 0.394745 3.39963
361 1 112.881 0.394745 3.39963
362 1 115.233 0.394745 3.39963
363 1 122.288 0.394745 3.39963
364 1 124.639 0.394745 3.39963
365 1 3.13627 4.8291 3.39963
366 1 6.27183 2.61192 3.39963
367 1 5.48794 4.8291 3.39963
368 1 8.6235 2.61192 3.39963
369 1 12.5429 4.8291 3.39963
370 1 15.6785 2.61192 3.39963
371 1 14.8946 4.8291 3.39963
372 1 18.0302 2.61192 3.39963
373 1 21.9496 4.8291 3.39963
374 1 25.0852 2.61192 3.39963
375 1 24.3013 4.8291 3.39963
376 1 27.4369 2.61192 3.39963
377 1 31.3563 4.8291 3.39963
378 1 34.4919 2.61192 3.39963
379 1 33.708 4.8291 3.39963
380 1 36.8435 2.61192 3.39963
381 1 40.763 4.8291 3.39963
382 1 43.8986 2.61192 3.39963
383 1 43.1147 4.8291 3.39963
384 1 46.2502 2.61192 3.39963
385 1 50.1697 4.8291 3.39963
386 1 52.5213 4.8291 3.39963
387 1 53.3052 2.61192 3.39963
388 1 55.6569 2.61192 3.39963
389 1 59.5764 4.8291 3.39963
390 1 61.928 4.8291 3.39963
391 1 62.7119 2.61192 3.39963
392 1 65.0636 2.61192 3.39963
393 1 68.983 2.61192 3.39963
394 1 71.3347 2.61192 3.39963
395 1 72.1186 4.8291 3.39963
396 1 74.4703 4.8291 3.39963
397 1 78.3897 2.61192 3.39963
398 1 80.7414 2.61192 3.39963
399 1 81.5253 4.8291 3.39963
400 1 83.8769 4.8291 3.39963
401 1 87.7964 2.61192 3.39963
402 1 90.1481 2.61192 3.39963
403 1 90.932 4.8291 3.39963
404 1 93.2836 4.8291 3.39963
405 1 97.2031 2.61192 3.39963
406 1 99.5547 2.61192 3.39963
407 1 100.339 4.8291 3.39963
408 1 102.69 4.8291 3.39963
409 1 106.61 2.61192 3.39963
410 1 108.961 2.61192 3.39963
411 1 109.745 4.8291 3.39963
412 1 112.097 4.8291 3.39963
413 1 116.016 2.61192 3.39963
414 1 118.368 2.61192 3.39963
415 1 119.152 4.8291 3.39963
416 1 121.504 4.8291 3.39963
417 1 125.423 2.61192 3.39963
418 1 127.775 2.61192 3.39963
419 1 128.559 4.8291 3.39963
420 1 130.91 4.8291 3.39963
421 1 0.000707491 7.04627 3.39963
422 1 2.35238 7.04627 3.39963
423 1 9.40739 7.04627 3.39963
424 1 11.7591 7.04627 3.39963
425 1 18.8141 7.04627 3.39963
426 1 21.1657 7.04627 3.39963
427 1 28.2207 7.04627 3.39963
428 1 30.5724 7.04627 3.39963
429 1 37.6274 7.04627 3.39963
430 1 39.9791 7.04627 3.39963
431 1 47.0341 7.04627 3.39963
432 1 49.3858 7.04627 3.39963
433 1 56.4408 7.04627 3.39963
434 1 58.7925 7.04627 3.39963
435 1 65.8475 7.04627 3.39963
436 1 68.1991 7.04627 3.39963
437 1 75.2542 7.04627 3.39963
438 1 77.6058 7.04627 3.39963
439 1 84.6608 7.04627 3.39963
440 1 87.0125 7.04627 3.39963
441 1 94.0675 7.04627 3.39963
442 1 96.4192 7.04627 3.39963
443 1 103.474 7.04627 3.39963
444 1 105.826 7.04627 3.39963
445 1 112.881 7.04627 3.39963
446 1 115.233 7.04627 3.39963
447 1 122.288 7.04627 3.39963
448 1 124.639 7.04627 3.39963
449 1 6.27183 9.26345 3.39963
450 1 8.6235 9.26345 3.39963
451 1 15.6785 9.26345 3.39963
452 1 18.0302 9.26345 3.39963
453 1 25.0852 9.26345 3.39963
454 1 27.4369 9.26345 3.39963
455 1 34.4919 9.26345 3.39963
456 1 36.8435 9.26345 3.39963
457 1 43.8986 9.26345 3.39963
458 1 46.2502 9.26345 3.39963
459 1 53.3052 9.26345 3.39963
460 1 55.6569 9.26345 3.39963
461 1 62.7119 9.26345 3.39963
462 1 65.0636 9.26345 3.39963
463 1 68.983 9.26345 3.39963
464 1 71.3347 9.26345 3.39963
465 1 78.3897 9.26345 3.39963
466 1 80.7414 9.26345 3.39963
467 1 87.7964 9.26345 3.39963
468 1 90.1481 9.26345 3.39963
469 1 97.2031 9.26345 3.39963
470 1 99.5547 9.26345 3.39963
471 1 106.61 9.26345 3.39963
472 1 108.961 9.26345 3.39963
473 1 116.016 9.26345 3.39963
474 1 118.368 9.26345 3.39963
475 1 125.423 9.26345 3.39963
476 1 127.775 9.26345 3.39963
477 1 3.13627 11.4806 3.39963
478 1 5.48794 11.4806 3.39963
479 1 12.5429 11.4806 3.39963
480 1 14.8946 11.4806 3.39963
481 1 21.9496 11.4806 3.39963
482 1 24.3013 11.4806 3.39963
483 1 31.3563 11.4806 3.39963
484 1 33.708 11.4806 3.39963
485 1 40.763 11.4806 3.39963
486 1 43.1147 11.4806 3.39963
487 1 50.1697 11.4806 3.39963
488 1 52.5213 11.4806 3.39963
489 1 59.5764 11.4806 3.39963
490 1 61.928 11.4806 3.39963
491 1 72.1186 11.4806 3.39963
492 1 74.4703 11.4806 3.39963
493 1 81.5253 11.4806 3.39963
494 1 83.8769 11.4806 3.39963
495 1 90.932 11.4806 3.39963
496 1 93.2836 11.4806 3.39963
497 1 100.339 11.4806 3.39963
498 1 102.69 11.4806 3.39963
499 1 109.745 11.4806 3.39963
500 1 112.097 11.4806 3.39963
501 1 119.152 11.4806 3.39963
502 1 121.504 11.4806 3.39963
503 1 128.559 11.4806 3.39963
504 1 130.91 11.4806 3.39963
505 1 0.000707491 13.6978 3.39963
506 1 2.35238 13.6978 3.39963
507 1 9.40739 13.6978 3.39963
508 1 11.7591 13.6978 3.39963
509 1 18.8141 13.6978 3.39963
510 1 21.1657 13.6978 3.39963
511 1 28.2207 13.6978 3.39963
512 1 30.5724 13.6978 3.39963
513 1 37.6274 13.6978 3.39963
514 1 39.9791 13.6978 3.39963
515 1 47.0341 13.6978 3.39963
516 1 49.3858 13.6978 3.39963
517 1 56.4408 13.6978 3.39963
518 1 58.7925 13.6978 3.39963
519 1 65.8475 13.6978 3.39963
520 1 68.1991 13.6978 3.39963
521 1 75.2542 13.6978 3.39963
522 1 77.6058 13.6978 3.39963
523 1 84.6608 13.6978 3.39963
524 1 87.0125 13.6978 3.39963
525 1 94.0675 13.6978 3.39963
526 1 96.4192 13.6978 3.39963
527 1 103.474 13.6978 3.39963
528 1 105.826 13.6978 3.39963
529 1 112.881 13.6978 3.39963
530 1 115.233 13.6978 3.39963
531 1 122.288 13.6978 3.39963
532 1 124.639 13.6978 3.39963
533 1 6.27183 15.915 3.39963
534 1 8.6235 15.915 3.39963
535 1 15.6785 15.915 3.39963
536 1 18.0302 15.915 3.39963
537 1 25.0852 15.915 3.39963
538 1 27.4369 15.915 3.39963
539 1 34.4919 15.915 3.39963
540 1 36.8435 15.915 3.39963
541 1 43.8986 15.915 3.39963
542 1 46.2502 15.915 3.39963
543 1 53.3052 15.915 3.39963
544 1 55.6569 15.915 3.39963
545 1 62.7119 15.915 3.39963
546 1 65.0636 15.915 3.39963
547 1 68.983 15.915 3.39963
548 1 71.3347 15.915 3.39963
549 1 78.3897 15.915 3.39963
550 1 80.7414 15.915 3.39963
551 1 87.7964 15.915 3.39963
552 1 90.1481 15.915 3.39963
553 1 97.2031 15.915 3.39963
554 1 99.5547 15.915 3.39963
555 1 106.61 15.915 3.39963
556 1 108.961 15.915 3.39963
557 1 116.016 15.915 3.39963
558 1 118.368 15.915 3.39963
559 1 125.423 15.915 3.39963
560 1 127.775 15.915 3.39963
561 1 3.13627 18.1322 3.39963
562 1 5.48794 18.1322 3.39963
563 1 12.5429 18.1322 3.39963
564 1 14.8946 18.1322 3.39963
565 1 21.9496 18.1322 3.39963
566 1 24.3013 18.1322 3.39963
567 1 31.3563 18.1322 3.39963
568 1 33.708 18.1322 3.39963
569 1 40.763 18.1322 3.39963
570 1 43.1147 18.1322 3.39963
571 1 50.1697 18.1322 3.39963
572 1 52.5213 18.1322 3.39963
573 1 59.5764 18.1322 3.39963
574 1 61.928 18.1322 3.39963
575 1 72.1186 18.1322 3.39963
576 1 74.4703 18.1322 3.39963
577 1 81.5253 18.1322 3.39963
578 1 83.8769 18.1322 3.39963
579 1 90.932 18.1322 3.39963
580 1 93.2836 18.1322 3.39963
581 1 100.339 18.1322 3.39963
582 1 102.69 18.1322 3.39963
583 1 109.745 18.1322 3.39963
584 1 112.097 18.1322 3.39963
585 1 119.152 18.1322 3.39963
586 1 121.504 18.1322 3.39963
587 1 128.559 18.1322 3.39963
588 1 130.91 18.1322 3.39963
589 1 0.000707491 20.3493 3.39963
590 1 2.35238 20.3493 3.39963
591 1 9.40739 20.3493 3.39963
592 1 11.7591 20.3493 3.39963
593 1 18.8141 20.3493 3.39963
594 1 21.1657 20.3493 3.39963
595 1 28.2207 20.3493 3.39963
596 1 30.5724 20.3493 3.39963
597 1 37.6274 20.3493 3.39963
598 1 39.9791 20.3493 3.39963
599 1 47.0341 20.3493 3.39963
600 1 49.3858 20.3493 3.39963
601 1 56.4408 20.3493 3.39963
602 1 58.7925 20.3493 3.39963
603 1 65.8475 20.3493 3.39963
604 1 68.1991 20.3493 3.39963
605 1 75.2542 20.3493 3.39963
606 1 77.6058 20.3493 3.39963
607 1 84.6608 20.3493 3.39963
608 1 87.0125 20.3493 3.39963
609 1 94.0675 20.3493 3.39963
610 1 96.4192 20.3493 3.39963
611 1 103.474 20.3493 3.39963
612 1 105.826 20.3493 3.39963
613 1 112.881 20.3493 3.39963
614 1 115.233 20.3493 3.39963
615 1 122.288 20.3493 3.39963
616 1 124.639 20.3493 3.39963
617 1 6.27183 22.5665 3.39963
618 1 8.6235 22.5665 3.39963
619 1 15.6785 22.5665 3.39963
620 1 18.0302 22.5665 3.39963
621 1 25.0852 22.5665 3.39963
622 1 27.4369 22.5665 3.39963
623 1 34.4919 22.5665 3.39963
624 1 36.8435 22.5665 3.39963
625 1 43.8986 22.5665 3.39963
626 1 46.2502 22.5665 3.39963
627 1 53.3052 22.5665 3.39963
628 1 55.6569 22.5665 3.39963
629 1 62.7119 22.5665 3.39963
630 1 65.0636 22.5665 3.39963
631 1 68.983 22.5665 3.39963
632 1 71.3347 22.5665 3.39963
633 1 78.3897 22.5665 3.39963
634 1 80.7414 22.5665 3.39963
635 1 87.7964 22.5665 3.39963
636 1 90.1481 22.5665 3.39963
637 1 97.2031 22.5665 3.39963
638 1 99.5547 22.5665 3.39963
639 1 106.61 22.5665 3.39963
640 1 108.961 22.5665 3.39963
641 1 116.016 22.5665 3.39963
642 1 118.368 22.5665 3.39963
643 1 125.423 22.5665 3.39963
644 1 127.775 22.5665 3.39963
645 1 3.13627 24.7837 3.39963
646 1 5.48794 24.7837 3.39963
647 1 12.5429 24.7837 3.39963
648 1 14.8946 24.7837 3.39963
649 1 21.9496 24.7837 3.39963
650 1 24.3013 24.7837 3.39963
651 1 31.3563 24.7837 3.39963
652 1 33.708 24.7837 3.39963
653 1 40.763 24.7837 3.39963
654 1 43.1147 24.7837 3.39963
655 1 50.1697 24.7837 3.39963
656 1 52.5213 24.7837 3.39963
657 1 59.5764 24.7837 3.39963
658 1 61.928 24.7837 3.39963
659 1 72.1186 24.7837 3.39963
660 1 74.4703 24.7837 3.39963
661 1 81.5253 24.7837 3.39963
662 1 83.8769 24.7837 3.39963
663 1 90.932 24.7837 3.39963
664 1 93.2836 24.7837 3.39963
665 1 100.339 24.7837 3.39963
666 1 102.69 24.7837 3.39963
667 1 109.745 24.7837 3.39963
668 1 112.097 24.7837 3.39963
669 1 119.152 24.7837 3.39963
670 1 121.504 24.7837 3.39963
671 1 128.559 24.7837 3.39963
672 1 130.91 24.7837 3.39963
673 1 0.000707491 0.394745 7.23989
674 1 2.35238 0.394745 7.23989
675 1 3.13627 1.50333 5.31976
676 1 5.48794 1.50333 5.31976
677 1 9.40739 0.394745 7.23989
678 1 11.7591 0.394745 7.23989
679 1 12.5429 1.50333 5.31976
680 1 14.8946 1.50333 5.31976
681 1 18.8141 0.394745 7.23989
682 1 21.1657 0.394745 7.23989
683 1 21.9496 1.50333 5.31976
684 1 24.3013 1.50333 5.31976
685 1 28.2207 0.394745 7.23989
686 1 30.5724 0.394745 7.23989
687 1 31.3563 1.50333 5.31976
688 1 33.708 1.50333 5.31976
689 1 37.6274 0.394745 7.23989
690 1 39.9791 0.394745 7.23989
691 1 40.763 1.50333 5.31976
692 1 43.1147 1.50333 5.31976
693 1 47.0341 0.394745 7.23989
694 1 50.1697 1.50333 5.31976
695 1 49.3858 0.394745 7.23989
696 1 52.5213 1.50333 5.31976
697 1 56.4408 0.394745 7.23989
698 1 59.5764 1.50333 5.31976
699 1 58.7925 0.394745 7.23989
700 1 61.928 1.50333 5.31976
701 1 65.8475 0.394745 7.23989
702 1 68.1991 0.394745 7.23989
703 1 72.1186 1.50333 5.31976
704 1 75.2542 0.394745 7.23989
705 1 74.4703 1.50333 5.31976
706 1 77.6058 0.394745 7.23989
707 1 81.5253 1.50333 5.31976
708 1 84.6608 0.394745 7.23989
709 1 83.8769 1.50333 5.31976
710 1 87.0125 0.394745 7.23989
711 1 90.932 1.50333 5.31976
712 1 93.2836 1.50333 5.31976
713 1 94.0675 0.394745 7.23989
714 1 96.4192 0.394745 7.23989
715 1 100.339 1.50333 5.31976
716 1 102.69 1.50333 5.31976
717 1 103.474 0.394745 7.23989
718 1 105.826 0.394745 7.23989
719 1 109.745 1.50333 5.31976
720 1 112.097 1.50333 5.31976
721 1 112.881 0.394745 7.23989
722 1 115.233 0.394745 7.23989
723 1 119.152 1.50333 5.31976
724 1 121.504 1.50333 5.31976
725 1 122.288 0.394745 7.23989
726 1 124.639 0.394745 7.23989
727 1 128.559 1.50333 5.31976
728 1 130.91 1.50333 5.31976
729 1 0.000707491 3.72051 5.31976
730 1 2.35238 3.72051 5.31976
731 1 3.13627 4.8291 7.23989
732 1 6.27183 2.61192 7.23989
733 1 5.48794 4.8291 7.23989
734 1 8.6235 2.61192 7.23989
735 1 9.40739 3.72051 5.31976
736 1 11.7591 3.72051 5.31976
737 1 12.5429 4.8291 7.23989
738 1 15.6785 2.61192 7.23989
739 1 14.8946 4.8291 7.23989
740 1 18.0302 2.61192 7.23989
741 1 18.8141 3.72051 5.31976
742 1 21.1657 3.72051 5.31976
743 1 21.9496 4.8291 7.23989
744 1 25.0852 2.61192 7.23989
745 1 24.3013 4.8291 7.23989
746 1 27.4369 2.61192 7.23989
747 1 28.2207 3.72051 5.31976
748 1 30.5724 3.72051 5.31976
749 1 31.3563 4.8291 7.23989
750 1 34.4919 2.61192 7.23989
751 1 33.708 4.8291 7.23989
752 1 36.8435 2.61192 7.23989
753 1 37.6274 3.72051 5.31976
754 1 39.9791 3.72051 5.31976
755 1 40.763 4.8291 7.23989
756 1 43.8986 2.61192 7.23989
757 1 43.1147 4.8291 7.23989
758 1 46.2502 2.61192 7.23989
759 1 47.0341 3.72051 5.31976
760 1 49.3858 3.72051 5.31976
761 1 50.1697 4.8291 7.23989
762 1 52.5213 4.8291 7.23989
763 1 53.3052 2.61192 7.23989
764 1 55.6569 2.61192 7.23989
765 1 56.4408 3.72051 5.31976
766 1 58.7925 3.72051 5.31976
767 1 59.5764 4.8291 7.23989
768 1 61.928 4.8291 7.23989
769 1 62.7119 2.61192 7.23989
770 1 65.0636 2.61192 7.23989
771 1 65.8475 3.72051 5.31976
772 1 68.983 2.61192 7.23989
773 1 68.1991 3.72051 5.31976
774 1 71.3347 2.61192 7.23989
775 1 72.1186 4.8291 7.23989
776 1 75.2542 3.72051 5.31976
777 1 74.4703 4.8291 7.23989
778 1 78.3897 2.61192 7.23989
779 1 77.6058 3.72051 5.31976
780 1 80.7414 2.61192 7.23989
781 1 81.5253 4.8291 7.23989
782 1 84.6608 3.72051 5.31976
783 1 83.8769 4.8291 7.23989
784 1 87.7964 2.61192 7.23989
785 1 87.0125 3.72051 5.31976
786 1 90.1481 2.61192 7.23989
787 1 90.932 4.8291 7.23989
788 1 93.2836 4.8291 7.23989
789 1 94.0675 3.72051 5.31976
790 1 97.2031 2.61192 7.23989
791 1 96.4192 3.72051 5.31976
792 1 99.5547 2.61192 7.23989
793 1 100.339 4.8291 7.23989
794 1 102.69 4.8291 7.23989
795 1 103.474 3.72051 5.31976
796 1 106.61 2.61192 7.23989
797 1 105.826 3.72051 5.31976
798 1 108.961 2.61192 7.23989
799 1 109.745 4.8291 7.23989
800 1 112.097 4.8291 7.23989
801 1 112.881 3.72051 5.31976
802 1 116.016 2.61192 7.23989
803 1 115.233 3.72051 5.31976
804 1 118.368 2.61192 7.23989
805 1 119.152 4.8291 7.23989
806 1 121.504 4.8291 7.23989
807 1 122.288 3.72051 5.31976
808 1 125.423 2.61192 7.23989
809 1 124.639 3.72051 5.31976
810 1 127.775 2.61192 7.23989
811 1 128.559 4.8291 7.23989
812 1 130.91 4.8291 7.23989
813 1 0.000707491 7.04627 7.23989
814 1 2.35238 7.04627 7.23989
815 1 6.27183 5.93769 5.31976
816 1 8.6235 5.93769 5.31976
817 1 9.40739 7.04627 7.23989
818 1 11.7591 7.04627 7.23989
819 1 15.6785 5.93769 5.31976
820 1 18.0302 5.93769 5.31976
821 1 18.8141 7.04627 7.23989
822 1 21.1657 7.04627 7.23989
823 1 25.0852 5.93769 5.31976
824 1 27.4369 5.93769 5.31976
825 1 28.2207 7.04627 7.23989
826 1 30.5724 7.04627 7.23989
827 1 34.4919 5.93769 5.31976
828 1 36.8435 5.93769 5.31976
829 1 37.6274 7.04627 7.23989
830 1 39.9791 7.04627 7.23989
831 1 43.8986 5.93769 5.31976
832 1 46.2502 5.93769 5.31976
833 1 47.0341 7.04627 7.23989
834 1 49.3858 7.04627 7.23989
835 1 53.3052 5.93769 5.31976
836 1 55.6569 5.93769 5.31976
837 1 56.4408 7.04627 7.23989
838 1 58.7925 7.04627 7.23989
839 1 62.7119 5.93769 5.31976
840 1 65.0636 5.93769 5.31976
841 1 65.8475 7.04627 7.23989
842 1 68.983 5.93769 5.31976
843 1 68.1991 7.04627 7.23989
844 1 71.3347 5.93769 5.31976
845 1 75.2542 7.04627 7.23989
846 1 78.3897 5.93769 5.31976
847 1 77.6058 7.04627 7.23989
848 1 80.7414 5.93769 5.31976
849 1 84.6608 7.04627 7.23989
850 1 87.7964 5.93769 5.31976
851 1 87.0125 7.04627 7.23989
852 1 90.1481 5.93769 5.31976
853 1 94.0675 7.04627 7.23989
854 1 97.2031 5.93769 5.31976
855 1 96.4192 7.04627 7.23989
856 1 99.5547 5.93769 5.31976
857 1 103.474 7.04627 7.23989
858 1 106.61 5.93769 5.31976
859 1 105.826 7.04627 7.23989
860 1 108.961 5.93769 5.31976
861 1 112.881 7.04627 7.23989
862 1 116.016 5.93769 5.31976
863 1 115.233 7.04627 7.23989
864 1 118.368 5.93769 5.31976
865 1 122.288 7.04627 7.23989
866 1 125.423 5.93769 5.31976
867 1 124.639 7.04627 7.23989
868 1 127.775 5.93769 5.31976
869 1 3.13627 8.15486 5.31976
870 1 5.48794 8.15486 5.31976
871 1 6.27183 9.26345 7.23989
872 1 8.6235 9.26345 7.23989
873 1 12.5429 8.15486 5.31976
874 1 14.8946 8.15486 5.31976
875 1 15.6785 9.26345 7.23989
876 1 18.0302 9.26345 7.23989
877 1 21.9496 8.15486 5.31976
878 1 24.3013 8.15486 5.31976
879 1 25.0852 9.26345 7.23989
880 1 27.4369 9.26345 7.23989
881 1 31.3563 8.15486 5.31976
882 1 33.708 8.15486 5.31976
883 1 34.4919 9.26345 7.23989
884 1 36.8435 9.26345 7.23989
885 1 40.763 8.15486 5.31976
886 1 43.1147 8.15486 5.31976
887 1 43.8986 9.26345 7.23989
888 1 46.2502 9.26345 7.23989
889 1 50.1697 8.15486 5.31976
890 1 52.5213 8.15486 5.31976
891 1 53.3052 9.26345 7.23989
892 1 55.6569 9.26345 7.23989
893 1 59.5764 8.15486 5.31976
894 1 61.928 8.15486 5.31976
895 1 62.7119 9.26345 7.23989
896 1 65.0636 9.26345 7.23989
897 1 68.983 9.26345 7.23989
898 1 71.3347 9.26345 7.23989
899 1 72.1186 8.15486 5.31976
900 1 74.4703 8.15486 5.31976
901 1 78.3897 9.26345 7.23989
902 1 80.7414 9.26345 7.23989
903 1 81.5253 8.15486 5.31976
904 1 83.8769 8.15486 5.31976
905 1 87.7964 9.26345 7.23989
906 1 90.932 8.15486 5.31976
907 1 90.1481 9.26345 7.23989
908 1 93.2836 8.15486 5.31976
909 1 97.2031 9.26345 7.23989
910 1 100.339 8.15486 5.31976
911 1 99.5547 9.26345 7.23989
912 1 102.69 8.15486 5.31976
913 1 106.61 9.26345 7.23989
914 1 109.745 8.15486 5.31976
915 1 108.961 9.26345 7.23989
916 1 112.097 8.15486 5.31976
917 1 116.016 9.26345 7.23989
918 1 119.152 8.15486 5.31976
919 1 118.368 9.26345 7.23989
920 1 121.504 8.15486 5.31976
921 1 125.423 9.26345 7.23989
922 1 128.559 8.15486 5.31976
923 1 127.775 9.26345 7.23989
924 1 130.91 8.15486 5.31976
925 1 0.000707491 10.372 5.31976
926 1 2.35238 10.372 5.31976
927 1 3.13627 11.4806 7.23989
928 1 5.48794 11.4806 7.23989
929 1 9.40739 10.372 5.31976
930 1 11.7591 10.372 5.31976
931 1 12.5429 11.4806 7.23989
932 1 14.8946 11.4806 7.23989
933 1 18.8141 10.372 5.31976
934 1 21.1657 10.372 5.31976
935 1 21.9496 11.4806 7.23989
936 1 24.3013 11.4806 7.23989
937 1 28.2207 10.372 5.31976
938 1 30.5724 10.372 5.31976
939 1 31.3563 11.4806 7.23989
940 1 33.708 11.4806 7.23989
941 1 37.6274 10.372 5.31976
942 1 39.9791 10.372 5.31976
943 1 40.763 11.4806 7.23989
944 1 43.1147 11.4806 7.23989
945 1 47.0341 10.372 5.31976
946 1 49.3858 10.372 5.31976
947 1 50.1697 11.4806 7.23989
948 1 52.5213 11.4806 7.23989
949 1 56.4408 10.372 5.31976
950 1 58.7925 10.372 5.31976
951 1 59.5764 11.4806 7.23989
952 1 61.928 11.4806 7.23989
953 1 65.8475 10.372 5.31976
954 1 68.1991 10.372 5.31976
955 1 72.1186 11.4806 7.23989
956 1 75.2542 10.372 5.31976
957 1 74.4703 11.4806 7.23989
958 1 77.6058 10.372 5.31976
959 1 81.5253 11.4806 7.23989
960 1 84.6608 10.372 5.31976
961 1 83.8769 11.4806 7.23989
962 1 87.0125 10.372 5.31976
963 1 90.932 11.4806 7.23989
964 1 93.2836 11.4806 7.23989
965 1 94.0675 10.372 5.31976
966 1 96.4192 10.372 5.31976
967 1 100.339 11.4806 7.23989
968 1 102.69 11.4806 7.23989
969 1 103.474 10.372 5.31976
970 1 105.826 10.372 5.31976
971 1 109.745 11.4806 7.23989
972 1 112.097 11.4806 7.23989
973 1 112.881 10.372 5.31976
974 1 115.233 10.372 5.31976
975 1 119.152 11.4806 7.23989
976 1 121.504 11.4806 7.23989
977 1 122.288 10.372 5.31976
978 1 124.639 10.372 5.31976
979 1 128.559 11.4806 7.23989
980 1 130.91 11.4806 7.23989
981 1 0.000707491 13.6978 7.23989
982 1 2.35238 13.6978 7.23989
983 1 6.27183 12.5892 5.31976
984 1 8.6235 12.5892 5.31976
985 1 9.40739 13.6978 7.23989
986 1 11.7591 13.6978 7.23989
987 1 15.6785 12.5892 5.31976
988 1 18.0302 12.5892 5.31976
989 1 18.8141 13.6978 7.23989
990 1 21.1657 13.6978 7.23989
991 1 25.0852 12.5892 5.31976
992 1 27.4369 12.5892 5.31976
993 1 28.2207 13.6978 7.23989
994 1 30.5724 13.6978 7.23989
995 1 34.4919 12.5892 5.31976
996 1 36.8435 12.5892 5.31976
997 1 37.6274 13.6978 7.23989
998 1 39.9791 13.6978 7.23989
999 1 43.8986 12.5892 5.31976
1000 1 46.2502 12.5892 5.31976
1001 1 47.0341 13.6978 7.23989
1002 1 49.3858 13.6978 7.23989
1003 1 53.3052 12.5892 5.31976
1004 1 55.6569 12.5892 5.31976
1005 1 56.4408 13.6978 7.23989
1006 1 58.7925 13.6978 7.23989
1007 1 62.7119 12.5892 5.31976
1008 1 65.0636 12.5892 5.31976
1009 1 65.8475 13.6978 7.23989
1010 1 68.983 12.5892 5.31976
1011 1 68.1991 13.6978 7.23989