ITEM: TIMESTEP
28233
ITEM: NUMBER OF ATOMS
11940
ITEM: BOX BOUNDS pp pp pp
1.4405614501813609e-02 1.5740478038549935e+02
2.6594321922755397e-02 7.8682998678076970e+01
2.2613040988204692e-03 1.0557738695901179e+01
ITEM: ATOMS id type x y z
1 1 0.79161 2.26828 2.4948
2 1 2.44487 1.40248 0.735393
3 1 0.182125 0.865724 0.735484
4 1 3.17673 2.95584 2.4946
5 1 4.75305 2.14568 0.735306
6 1 3.91905 0.561569 2.49464
7 1 8.65336 2.10901 2.49447
8 1 6.29094 1.33503 2.49455
9 1 7.09555 2.91008 0.735227
10 1 7.8519 0.536824 0.735285
11 1 11.0139 2.88434 2.49442
12 1 10.2182 1.31204 0.735234
13 1 11.7878 0.516434 2.49448
14 1 14.1531 1.29177 2.49445
15 1 12.5821 2.08771 0.735194
16 1 16.5178 2.06621 2.49442
17 1 14.9454 2.86256 0.735159
18 1 15.7263 0.496166 0.73521
19 1 18.8821 2.8397 2.49441
20 1 20.4566 2.0433 0.735182
21 1 18.0916 1.27013 0.735191
22 1 19.6666 0.474202 2.49445
23 1 22.0318 1.24706 2.49445
24 1 22.8213 2.81588 0.73518
25 1 23.6078 0.450913 0.735218
26 1 24.3968 2.01946 2.49445
27 1 25.9728 1.22311 0.735219
28 1 26.7616 2.79153 2.49445
29 1 28.3376 1.99506 0.735225
30 1 27.5491 0.426808 2.49448
31 1 32.2785 1.97034 2.4945
32 1 29.9138 1.19864 2.49449
33 1 30.7023 2.76685 0.735234
34 1 31.4903 0.402218 0.735262
35 1 34.643 2.74195 2.49451
36 1 33.8548 1.17384 0.735271
37 1 35.4313 0.377339 2.49453
38 1 37.7956 1.14885 2.49454
39 1 36.2193 1.9454 0.735282
40 1 38.5836 2.71691 0.735293
41 1 40.1599 1.92032 2.49455
42 1 39.3721 0.352289 0.735314
43 1 42.5241 2.69179 2.49456
44 1 44.1004 1.89517 0.735331
45 1 41.7363 1.12373 0.735323
46 1 43.3127 0.327138 2.49458
47 1 45.6768 1.09855 2.49459
48 1 46.4645 2.66662 0.735338
49 1 47.2532 0.301944 0.735355
50 1 48.0407 1.86999 2.49459
51 1 50.4046 2.64146 2.4946
52 1 49.6171 1.07337 0.735358
53 1 51.9809 1.84485 0.735358
54 1 51.1935 0.276766 2.49461
55 1 55.9208 1.81984 2.49461
56 1 53.5572 1.04825 2.49461
57 1 54.3446 2.6164 0.735355
58 1 55.1336 0.251685 0.73537
59 1 58.2843 2.59156 2.4946
60 1 57.4971 1.02331 0.735365
1976 1 59.0733 0.226821 2.49461
61 1 61.4366 0.998689 2.49459
62 1 59.8605 1.7951 0.735367
63 1 62.2237 2.56711 0.735402
64 1 63.7997 1.77079 2.49455
1982 1 63.0127 0.20232 0.735411
65 1 66.163 2.5431 2.49442
66 1 65.3756 0.974537 0.735485
67 1 67.7389 1.747 0.735546
1985 1 66.9513 0.178099 2.49448
68 1 69.3137 0.950204 2.49415
69 1 70.1036 2.51957 0.73515
1990 1 70.8873 0.153839 0.732672
70 1 71.6748 1.72212 2.49329
71 1 74.028 2.49807 2.49253
72 1 73.249 0.925262 0.730312
73 1 75.6098 1.70583 0.741088
74 1 77.1625 0.962913 2.49812
1994 1 74.8051 0.137774 2.4946
75 1 78.0732 2.44511 0.727013
5991 1 79.9736 1.70291 2.46041
1997 1 78.6617 0.146351 0.841939
5992 1 82.5717 0.590256 2.49847
5993 1 82.2893 2.30745 0.789825
7897 1 80.9471 0.228588 0.676382
5994 1 84.0767 2.64419 2.4963
5995 1 84.3807 0.922983 0.758086
5996 1 85.8195 2.9711 0.741295
5997 1 86.1305 1.24697 2.49866
5999 1 87.8614 1.5675 0.735351
6000 1 89.592 1.88799 2.49696
6001 1 91.3239 2.20444 0.735834
6002 1 91.6452 0.475982 2.49588
7907 1 89.9132 0.160974 0.735389
6003 1 93.0574 2.51826 2.49524
6004 1 93.3773 0.788767 0.736071
6005 1 94.7908 2.8302 0.736212
6006 1 95.1097 1.1001 2.49531
6007 1 96.8421 1.41045 0.736154
6009 1 98.5745 1.72009 2.49531
6010 1 100.307 2.02921 0.73606
6011 1 100.624 0.298083 2.4953
6012 1 102.04 2.33797 2.4953
6013 1 102.356 0.606823 0.73604
6014 1 103.773 2.64648 0.736037
6015 1 104.089 0.915332 2.49528
6016 1 105.821 1.22368 0.736033
6017 1 105.505 2.95483 2.49528
6018 1 107.554 1.53194 2.49528
6019 1 109.286 1.84014 0.73604
7923 1 109.602 0.108792 2.49528
6021 1 111.019 2.14831 2.49529
6022 1 111.334 0.416978 0.73604
6023 1 112.752 2.45648 0.736056
6024 1 114.8 1.03331 0.736057
6025 1 113.067 0.725148 2.49529
6026 1 114.485 2.76466 2.49531
6027 1 116.532 1.34148 2.49531
6028 1 118.265 1.64965 0.736079
6030 1 119.997 1.95782 2.49534
6031 1 121.73 2.26599 0.736103
7935 1 120.312 0.226354 0.73608
6032 1 123.777 0.842627 0.736102
6033 1 122.045 0.534493 2.49534
6034 1 123.462 2.57417 2.49536
6035 1 125.51 1.15076 2.49536
6036 1 127.242 1.4589 0.736124
6037 1 125.195 2.88236 0.736128
6039 1 128.974 1.76706 2.49538
7944 1 129.29 0.035463 0.736116
6040 1 130.706 2.07525 0.736143
6041 1 132.438 2.38349 2.4954
6042 1 132.754 0.651875 0.736128
6043 1 131.022 0.343632 2.49537
6044 1 134.486 0.960224 2.49538
6045 1 136.218 1.26871 0.736132
6046 1 134.171 2.69176 0.736157
6047 1 135.903 3.00008 2.49541
6048 1 137.95 1.57738 2.49538
6049 1 141.416 2.1955 2.49536
6050 1 139.683 1.88628 0.736125
6051 1 141.732 0.466023 0.73608
7955 1 139.999 0.155956 2.49534
6052 1 145.2 1.08869 0.736038
6053 1 143.465 0.776862 2.49531
6054 1 144.885 2.81554 2.49532
6055 1 143.149 2.5052 0.7361
6056 1 146.936 1.40174 2.49526
6058 1 150.419 2.03097 2.49518
6059 1 148.675 1.71617 0.73597
6060 1 150.721 0.306632 0.735887
6061 1 152.177 2.34248 0.735871
6062 1 154.214 0.954513 0.735743
6063 1 152.462 0.625409 2.49508
6064 1 153.996 2.64386 2.49509
6065 1 155.939 1.15047 2.49496
6066 1 156.112 3.04625 0.735631
76 1 2.36937 5.30952 2.4945
77 1 1.56311 3.73683 0.735405
79 1 0.0664844 4.50873 2.49477
80 1 5.52579 3.71187 2.4945
81 1 4.71915 6.06806 2.49444
82 1 3.93875 4.5055 0.735266
83 1 7.87843 4.47968 2.49439
84 1 6.30008 5.27371 0.735142
85 1 8.65776 6.04774 0.73511
86 1 9.4482 3.68218 0.735179
87 1 10.2336 5.25313 2.49432
88 1 11.805 4.4564 0.735142
89 1 13.3746 3.65929 2.4944
90 1 12.5913 6.02706 2.49435
91 1 14.1642 5.23029 0.735098
92 1 17.3087 3.63633 0.73514
93 1 15.7362 4.43322 2.49438
94 1 16.5251 6.00332 0.735077
95 1 18.0985 5.2062 2.49435
96 1 20.4616 5.97852 2.49435
97 1 19.6722 4.40922 0.735134
98 1 21.2464 3.61246 2.4944
99 1 23.6107 4.38473 2.49441
100 1 22.036 5.18154 0.735136
101 1 25.186 3.58807 0.735184
102 1 25.9751 5.1567 2.49442
103 1 24.3999 5.95351 0.735143
104 1 29.1263 3.56339 2.49446
105 1 28.3394 5.92847 2.49443
106 1 27.5505 4.36 0.735192
107 1 31.4908 4.33511 2.49447
108 1 29.915 5.13176 0.735205
109 1 32.2795 5.90341 0.73522
110 1 33.0668 3.53852 0.735246
111 1 33.8553 5.10674 2.49449
112 1 35.4313 4.31011 0.735259
113 1 37.0074 3.51351 2.49452
114 1 36.2198 5.87833 2.4945
115 1 37.7957 5.08167 0.735273
116 1 40.9479 3.48841 0.735304
117 1 39.3718 4.28503 2.49454
118 1 40.16 5.85321 0.735286
119 1 41.736 5.05655 2.49455
120 1 44.1002 5.82806 2.49456
121 1 43.3121 4.2599 0.735314
122 1 44.8883 3.46325 2.49457
123 1 47.2523 4.23474 2.49458
124 1 45.6762 5.03139 0.735323
125 1 48.8284 3.43809 0.735342
126 1 49.6163 5.00625 2.49458
127 1 48.0402 5.80292 0.735329
128 1 52.7684 3.41299 2.4946
129 1 51.9801 5.77782 2.49458
130 1 51.1923 4.20961 0.735345
131 1 55.1322 4.18461 2.4946
132 1 53.5561 4.9812 0.735344
133 1 55.9198 5.75288 0.735339
134 1 56.7082 3.38806 0.735348
135 1 57.4958 4.95634 2.49459
136 1 59.0717 4.15987 0.73534
137 1 60.6477 3.36346 2.4946
138 1 59.8593 5.72821 2.4946
139 1 61.4352 4.93183 0.735338
140 1 64.587 3.33936 0.735525
141 1 63.0111 4.13556 2.49461
142 1 63.7985 5.70396 0.735362
143 1 65.3744 4.90786 2.49461
144 1 66.9504 4.11185 0.735796
145 1 67.7381 5.68019 2.49448
146 1 68.5271 3.31543 2.49392
147 1 69.3149 4.88439 0.736098
148 1 70.8929 4.08726 2.49245
149 1 72.473 3.29274 0.732649
150 1 71.6824 5.65666 0.735744
151 1 73.2606 4.85835 2.48995
152 1 76.3671 3.26665 2.49543
153 1 75.628 5.61719 2.48869
154 1 74.8585 4.07106 0.726259
155 1 78.6104 3.94413 2.5568
156 1 77.3205 4.84662 0.704676
6067 1 80.126 5.66102 2.2086
6068 1 80.2606 3.66939 0.820461
6069 1 82.0485 4.06476 2.46234
6070 1 81.8978 5.89832 0.736021
6072 1 83.8012 4.38026 0.74413
6073 1 85.4951 4.70807 2.50638
5998 1 87.5417 3.29729 2.49989
6074 1 87.218 5.02898 0.737098
6075 1 88.949 5.34838 2.49566
6076 1 89.2693 3.61634 0.735486
6077 1 91.0032 3.9334 2.49518
6078 1 90.683 5.66301 0.736192
6080 1 92.7376 4.24753 0.73621
6081 1 94.4719 4.55992 2.49513
6079 1 92.4186 5.9771 2.4947
6008 1 96.524 3.1409 2.49528
6083 1 96.2059 4.87089 0.736102
6084 1 97.9397 5.18088 2.49532
6085 1 98.2571 3.45072 0.736085
6086 1 99.9902 3.75994 2.49531
6087 1 99.6735 5.49022 0.736035
6088 1 103.457 4.37732 2.49529
6089 1 101.723 4.06875 0.73604
6090 1 101.407 5.79916 2.49529
6092 1 105.19 4.68572 0.73604
6093 1 106.923 4.99404 2.49529
6020 1 107.238 3.2631 0.736041
6094 1 108.971 3.57131 2.49529
6095 1 108.656 5.30231 0.73605
6096 1 110.704 3.87951 0.736053
6097 1 112.437 4.18772 2.49531
6098 1 110.389 5.61058 2.4953
6099 1 112.122 5.91885 0.736067
6100 1 114.17 4.49594 0.736072
6029 1 116.217 3.07286 0.736076
6102 1 117.95 3.38106 2.49533
6103 1 115.902 4.80419 2.49533
6104 1 117.635 5.11246 0.736097
6105 1 119.682 3.68928 0.736101
6106 1 121.415 3.99752 2.49536
6107 1 119.367 5.42075 2.49536
6108 1 121.1 5.72906 0.736125
6109 1 123.147 4.30576 0.736128
6110 1 122.832 6.03737 2.49539
6038 1 126.927 3.19055 2.49539
6111 1 124.88 4.61401 2.49539
6112 1 126.612 4.92226 0.736157
6113 1 128.659 3.49876 0.736153
6114 1 130.391 3.80697 2.49541
6115 1 128.344 5.23052 2.49542
6116 1 130.076 5.53876 0.736187
6117 1 132.123 4.1152 0.736176
6118 1 131.808 5.84696 2.49545
6120 1 133.855 4.4234 2.49543
6121 1 135.587 4.73156 0.736194
6122 1 137.635 3.30841 0.736164
6123 1 139.367 3.61673 2.49541
6124 1 137.319 5.03959 2.49545
6125 1 139.052 5.34742 0.736204
6126 1 141.1 3.92506 0.736157
6127 1 140.785 5.65497 2.49545
6128 1 142.518 5.96213 0.736201
6129 1 142.834 4.23344 2.49539
6130 1 144.569 4.54194 0.736126
6057 1 146.622 3.12666 0.736048
6132 1 148.364 3.43817 2.49526
6133 1 146.308 4.85047 2.49534
6134 1 148.05 5.15881 0.73605
6135 1 150.113 3.74814 0.73596
6136 1 149.795 5.46787 2.49526
6137 1 151.87 4.05433 2.49516
6138 1 153.605 4.35647 0.735854
6139 1 151.533 5.78214 0.735946
6141 1 155.213 4.72489 2.49511
78 1 0.72862 6.10901 0.735509
157 1 1.50585 7.65335 2.49376
159 1 3.89973 8.41427 2.49459
160 1 3.11683 6.8563 0.735225
161 1 5.48951 7.62729 0.734987
162 1 7.07777 6.83961 2.49422
163 1 7.85432 8.407 0.735001
165 1 9.43715 7.61634 2.4941
166 1 11.7978 8.39153 2.49427
167 1 11.0159 6.82262 0.735095
169 1 13.3756 7.5965 0.735029
171 1 14.9511 6.80026 2.49434
172 1 17.3125 7.57263 2.49429
173 1 15.7367 8.36931 0.734999
174 1 19.6749 8.34448 2.49429
175 1 18.8872 6.7756 0.735077
177 1 22.825 6.75045 2.49436
179 1 21.2501 7.54747 0.735085
180 1 23.6136 8.31912 0.735098
181 1 25.1888 7.52217 2.49437
182 1 25.9773 9.09066 0.735116
183 1 26.764 6.72528 0.735156
184 1 27.5528 8.29377 2.49439
185 1 29.1282 7.49692 0.735173
186 1 30.7038 6.70013 2.49444
187 1 29.9169 9.06531 2.49441
188 1 31.4925 8.2685 0.735192
189 1 34.6439 6.67501 0.735236
190 1 33.0682 7.47173 2.49446
191 1 35.4325 8.2433 2.49448
192 1 33.8568 9.04005 0.735212
193 1 38.5841 6.64988 2.49452
194 1 37.7968 9.01485 2.4945
195 1 37.0083 7.44658 0.735252
196 1 40.9484 7.42143 2.49453
197 1 39.3726 8.21813 0.735269
198 1 42.5243 6.62474 0.735299
199 1 43.3126 8.19299 2.49454
200 1 41.7368 8.9897 0.735284
201 1 46.4643 6.59959 2.49457
202 1 45.6767 8.96456 2.49456
203 1 44.8884 7.39629 0.73531
204 1 47.2525 8.16785 0.735319
205 1 50.4042 6.57448 0.735334
206 1 48.8283 7.37116 2.49457
207 1 49.6165 8.93946 0.735325
208 1 51.1922 8.14276 2.49458
209 1 52.768 7.34609 0.735335
210 1 54.3439 6.54946 2.49458
211 1 53.556 8.91442 2.49458
212 1 55.1317 8.11778 0.735333
213 1 58.2834 6.52466 0.73533
214 1 56.7075 7.32119 2.49458
215 1 59.0711 8.093 2.49457
216 1 57.4953 8.88953 0.735328
217 1 61.4347 8.86489 2.49456
218 1 60.647 7.29655 0.735315
219 1 62.2227 6.5002 2.49463
220 1 64.5861 7.27225 2.49474
221 1 63.0105 8.06852 0.735293
222 1 65.374 8.84045 0.735245
223 1 66.1616 6.47617 0.735416
224 1 66.9493 8.0441 2.49496
225 1 69.3117 8.81518 2.49521
226 1 68.5246 7.24823 0.735329
227 1 70.1025 6.45214 2.49371
228 1 70.8869 8.01956 0.734465
229 1 72.4681 7.22299 2.4912
230 1 74.0586 6.42796 0.733615
231 1 73.2477 8.78951 0.731782
232 1 74.8348 7.98939 2.48301
234 1 76.4641 7.18693 0.73383
233 1 77.2152 8.7333 2.47029
235 1 77.9369 6.3852 2.56504
6142 1 79.1496 7.58203 0.765669
6144 1 81.3396 7.62228 2.49982
6071 1 83.4805 6.15184 2.50948
6145 1 83.1822 7.90493 0.73016
6146 1 84.8405 8.21268 2.50982
6147 1 85.1819 6.45162 0.737277
6148 1 86.5797 8.50296 0.738547
6149 1 86.8939 6.76877 2.49967
6150 1 88.6288 7.07993 0.737169
6151 1 88.3134 8.81644 2.49452
6153 1 90.3656 7.39471 2.49399
6082 1 94.1535 6.28943 0.73606
6154 1 92.1004 7.70717 0.735954
6155 1 93.836 8.01885 2.49503
6156 1 95.8881 6.60045 2.49526
6157 1 95.5712 8.32974 0.735891
6158 1 97.3061 8.63998 2.49528
6159 1 97.6227 6.91058 0.736006
6160 1 99.357 7.22011 2.49529
6161 1 99.0409 8.9497 0.736007
6091 1 103.141 6.10784 0.736036
6163 1 102.825 7.83806 2.49528
6164 1 101.091 7.52922 0.736028
6165 1 104.874 6.41635 2.49528
6166 1 106.608 6.72477 0.736044
6167 1 106.292 8.4553 2.49529
6168 1 104.559 8.14673 0.736036
6169 1 108.341 7.03314 2.4953
6170 1 108.026 8.76382 0.73605
6171 1 109.759 9.07233 2.49531
6172 1 111.807 7.64989 2.49532
6173 1 110.074 7.34151 0.73606
6101 1 113.855 6.22715 2.49532
6174 1 115.587 6.53548 0.73609
6175 1 115.272 8.26672 2.49534
6176 1 113.54 7.95829 0.736082
6177 1 117.32 6.84383 2.49535
6178 1 118.738 8.88365 2.49537
6179 1 117.005 8.57518 0.73611
6180 1 120.785 7.4606 2.49538
6181 1 119.052 7.1522 0.736119
6183 1 124.564 6.3457 0.736157
6184 1 124.249 8.07741 2.49542
6185 1 122.517 7.769 0.736152
6186 1 126.297 6.65402 2.49542
6187 1 125.982 8.38579 0.73619
6188 1 127.714 8.69414 2.49546
6189 1 129.761 7.27058 2.49546
6190 1 128.029 6.96232 0.736192
6191 1 129.446 9.00243 0.736232
6119 1 133.54 6.15511 0.736216
6192 1 133.225 7.88686 2.49549
6193 1 131.493 7.57877 0.736229
6195 1 135.272 6.46312 2.49547
6196 1 134.957 8.19478 0.736264
6197 1 137.004 6.77094 0.736239
6198 1 138.737 7.07842 2.4955
6199 1 136.689 8.50245 2.49553
6200 1 138.422 8.80977 0.736295
6201 1 142.203 7.69181 2.49551
6202 1 140.47 7.38542 0.736258
6131 1 144.254 6.26889 2.49541
6204 1 143.937 7.9976 0.736263
6205 1 145.991 6.57543 0.736152
6206 1 147.729 6.88265 2.49534
6207 1 145.671 8.30341 2.49541
6208 1 147.405 8.61098 0.736161
6209 1 151.195 7.51667 2.49533
6210 1 149.465 7.19369 0.736024
6211 1 149.136 8.92273 2.49532
6140 1 153.244 6.12962 2.4951
6213 1 152.944 7.83531 0.735938
6214 1 155.042 6.45417 0.735833
6215 1 156.642 6.83118 2.4947
6216 1 154.692 8.1757 2.49447
6217 1 156.92 8.58203 0.735767
158 1 2.30518 9.18612 0.735101
236 1 0.83895 9.95941 2.49122
237 1 1.49927 11.5744 0.734597
238 1 3.1286 10.7761 2.4956
239 1 5.47973 11.5496 2.49337
240 1 4.68619 9.97487 0.73465
164 1 6.27006 9.19317 2.49391
241 1 8.63528 9.97622 2.4935
242 1 7.05363 10.7652 0.734685
168 1 10.2175 9.18474 0.735079
243 1 11.0003 10.7535 2.49402
244 1 9.41976 11.546 0.735117
170 1 14.1594 9.16522 2.49434
246 1 13.3648 11.5284 2.49438
247 1 12.5806 9.95993 0.734972
248 1 16.5221 9.93769 2.49425
249 1 14.9439 10.7335 0.73491
250 1 17.3078 11.5057 0.734921
176 1 18.099 9.1413 0.735006
252 1 18.8854 10.7095 2.49422
253 1 20.4621 9.91292 0.735024
178 1 22.0381 9.11608 2.4943
255 1 21.2493 11.4811 2.49424
256 1 22.8257 10.6844 0.735046
258 1 24.4017 9.88756 2.49433
259 1 25.1897 11.4558 0.735073
260 1 26.7656 10.659 2.49435
261 1 29.1297 11.4304 2.49438
262 1 28.3413 9.86215 0.735138
264 1 32.2811 9.83683 2.49443
265 1 30.7055 10.6336 0.735162
267 1 34.6454 10.6083 2.49446
268 1 33.0697 11.4051 0.735187
270 1 37.0097 11.3799 2.49448
271 1 36.2211 9.81159 0.735232
272 1 38.5854 10.5831 0.735253
273 1 40.1611 9.78641 2.49452
275 1 40.9497 11.3547 0.735272
276 1 42.5253 10.558 2.49453
277 1 44.101 9.76128 0.735298
278 1 43.3139 12.1263 0.735289
279 1 44.8896 11.3296 2.49455
280 1 47.2537 12.1013 2.49456
281 1 46.4652 10.5329 0.73531
282 1 48.0408 9.73617 2.49456
283 1 50.4048 10.5078 2.49457
284 1 48.8293 11.3045 0.735319
285 1 51.9804 9.71111 0.735328
286 1 52.7687 11.2795 2.49457
287 1 51.1933 12.0763 0.735325
288 1 55.9197 9.68615 2.49457
289 1 55.1325 12.0513 2.49457
290 1 54.3441 10.4828 0.735327
291 1 58.2833 10.4579 2.49455
292 1 56.7078 11.2546 0.735321
293 1 59.0713 12.0264 0.735307
294 1 59.8589 9.66135 0.73532
295 1 60.6467 11.2297 2.49453
296 1 62.2225 10.4332 0.735318
297 1 63.7983 9.63678 2.49457
298 1 63.0101 12.0014 2.49448
299 1 64.5861 11.2049 0.73535
300 1 66.1622 10.4085 2.49465
301 1 66.9501 11.9764 0.735461
302 1 67.7374 9.61212 0.735016
303 1 68.5266 11.1797 2.49483
304 1 70.1003 10.3833 0.734024
305 1 70.8917 11.9503 2.49496
306 1 71.6711 9.58461 2.49478
307 1 72.4612 11.1544 0.730692
308 1 74.0205 10.3521 2.49102
309 1 76.3453 11.1182 2.48581
310 1 75.6094 9.5531 0.732261
311 1 74.8187 11.9257 0.723308
312 1 77.9801 10.3017 0.771486
313 1 78.5654 12.0171 2.48569
6218 1 79.5564 9.39417 2.43702
6143 1 81.2011 9.20246 0.670269
6219 1 80.2986 11.3006 1.15319
6221 1 82.7198 9.67818 2.52326
6222 1 82.5729 11.3607 0.704744
6223 1 84.5457 9.93219 0.742248
6224 1 84.2021 11.6922 2.49757
6225 1 85.9443 11.986 0.742981
6226 1 86.2646 10.2498 2.49809
6228 1 87.9966 10.552 0.737836
6152 1 90.0478 9.12678 0.736352
6229 1 89.7352 10.8596 2.49421
6230 1 91.7846 9.43776 2.49449
6231 1 91.47 11.1685 0.735381
6232 1 93.5198 9.74846 0.735609
6233 1 93.2051 11.4787 2.49497
6234 1 94.94 11.7889 0.735726
6235 1 95.2551 10.0591 2.49521
6236 1 96.9903 10.3693 0.735934
6237 1 96.675 12.0989 2.49523
6162 1 100.775 9.25901 2.49527
6238 1 98.7252 10.6791 2.49526
6239 1 100.46 10.9886 0.736017
6240 1 102.51 9.56804 0.736027
6241 1 102.194 11.2979 2.49526
6242 1 103.929 11.6069 0.736025
6243 1 104.244 9.8769 2.49527
6244 1 105.977 10.1857 0.736039
6245 1 105.662 11.9159 2.49528
6246 1 107.711 10.4944 2.49529
6247 1 109.444 10.803 0.73606
6249 1 111.492 9.38084 0.736072
6250 1 111.177 11.1117 2.49532
6251 1 113.225 9.68938 2.49533
6252 1 114.957 9.99793 0.736099
6253 1 112.91 11.4204 0.736086
6254 1 114.642 11.7291 2.49535
6255 1 116.69 10.3065 2.49536
6256 1 118.422 10.6151 0.736132
6257 1 116.375 12.0378 0.736118
6182 1 120.47 9.19214 0.736144
6259 1 120.155 10.9237 2.4954
6260 1 122.202 9.50064 2.49541
6261 1 123.934 9.80912 0.736183
6262 1 121.887 11.2323 0.736172
6263 1 123.619 11.5408 2.49544
6264 1 125.667 10.1176 2.49545
6265 1 127.399 10.426 0.736228
6266 1 125.351 11.8494 0.736218
6268 1 129.131 10.7343 2.4955
6194 1 131.178 9.31062 2.4955
6269 1 132.91 9.61868 0.736279
6270 1 132.595 11.3506 2.49555
6271 1 130.863 11.0425 0.736281
6272 1 134.642 9.92655 2.49555
6273 1 136.374 10.2342 0.736323
6275 1 134.327 11.6585 0.736339
6274 1 136.059 11.9662 2.49561
6276 1 138.106 10.5415 2.49559
6203 1 140.154 9.11659 2.49558
6278 1 141.887 9.42284 0.736338
6279 1 141.57 11.1553 2.4957
6280 1 139.839 10.8485 0.736368
6281 1 143.619 9.72871 2.49559
6282 1 145.351 10.0347 0.736356
6283 1 143.301 11.4618 0.736481
6284 1 145.031 11.7683 2.49566
6285 1 147.081 10.3419 2.4953
6286 1 146.76 12.0747 0.736472
6212 1 150.872 9.23604 0.735898
6287 1 150.544 10.9613 2.49534
6288 1 148.812 10.6506 0.736066
6289 1 152.607 9.55749 2.49579
6290 1 154.355 9.8677 0.735697
6291 1 152.278 11.2729 0.735438
6292 1 153.996 11.6138 2.49742
6294 1 155.98 10.2133 2.49214
6295 1 155.8 11.9456 0.734571
314 1 2.27591 13.1234 2.5018
315 1 0.324058 14.0608 0.73352
6293 1 0.0200239 12.3021 2.48801
316 1 3.88554 12.3233 0.733901
317 1 4.67567 13.8972 2.49336
318 1 3.08407 14.6302 0.734772
319 1 7.83862 12.3387 2.49173
320 1 7.0368 14.7031 2.48829
321 1 6.25236 13.1288 0.733365
322 1 8.62291 13.9092 0.735033
245 1 11.7857 12.3222 0.734969
323 1 10.2054 13.1159 2.49295
324 1 10.9933 14.6851 0.735028
325 1 12.5719 13.8913 2.49423
326 1 14.1509 13.0966 0.734838
251 1 15.7295 12.3015 2.49427
327 1 14.9383 14.6649 2.49429
328 1 16.5165 13.8695 0.734831
254 1 19.6722 12.2775 0.734952
329 1 18.0945 13.0736 2.49419
330 1 20.4595 13.8454 2.49419
331 1 18.8821 14.6416 0.734871
257 1 23.6134 12.2525 2.49427
332 1 22.8245 14.6171 2.49422
333 1 22.0366 13.0491 0.734988
334 1 25.9776 13.0239 2.49431
335 1 24.4012 13.8206 0.735025
263 1 27.5538 12.2272 0.735102
336 1 26.7658 14.592 0.735063
337 1 28.342 13.7954 2.49435
266 1 31.4939 12.2019 2.49441
339 1 30.7064 14.5668 2.49438
340 1 29.918 12.9987 0.735132
341 1 32.2824 13.7701 0.735163
269 1 35.434 12.1766 0.735213
342 1 33.8582 12.9734 2.49444
343 1 34.6467 14.5416 0.735193
345 1 36.2225 13.7449 2.49446
346 1 38.5868 14.5164 2.49449
347 1 37.7983 12.9482 0.735237
274 1 39.374 12.1514 2.4945
349 1 40.1626 13.7197 0.73526
351 1 41.7383 12.923 2.49452
352 1 44.1025 13.6947 2.49454
353 1 42.5269 14.4914 0.735282
354 1 46.4668 14.4663 2.49456
355 1 45.6782 12.898 0.735305
357 1 49.6179 12.873 2.49457
358 1 48.0424 13.6697 0.735317
359 1 50.4066 14.4414 0.735327
361 1 51.9819 13.6447 2.49457
363 1 54.346 14.4166 2.49457
364 1 53.5572 12.848 0.735326
365 1 55.9211 13.6198 0.73532
366 1 57.4961 12.8231 2.49456
368 1 58.2848 14.3917 0.735302
369 1 59.8596 13.5949 2.49454
370 1 61.4347 12.7981 0.735291
372 1 62.2229 14.3666 2.49451
373 1 64.5858 15.138 2.49451
374 1 63.7978 13.5696 0.735298
375 1 65.3736 12.7729 2.49446
376 1 66.1607 14.3408 0.735413
377 1 67.7374 13.5439 2.49457
378 1 69.3148 12.7477 0.735609
379 1 68.5228 15.1115 0.735798
380 1 70.1019 14.3144 2.49494
381 1 71.6809 13.5195 0.735232
382 1 72.4679 15.0846 2.49534
383 1 73.2565 12.7216 2.49427
384 1 74.0514 14.2929 0.732262
385 1 75.6161 13.4986 2.49391
386 1 76.4344 15.0726 0.720571
387 1 77.161 12.7193 0.710714
388 1 77.9448 14.3188 2.50176
6297 1 79.6407 13.4875 0.724007
6296 1 80.1914 14.9642 2.50504
6298 1 81.8288 12.9931 2.49559
6299 1 81.8057 14.8552 0.734012
6301 1 83.8604 13.4209 0.764691
6302 1 85.6432 13.7158 2.49347
6300 1 83.5631 15.1041 2.49008
6227 1 87.689 12.2867 2.495
6303 1 87.3823 14.0206 0.740523
6304 1 89.1149 14.327 2.49479
6305 1 89.4236 12.592 0.736105
6306 1 91.158 12.9007 2.49473
6307 1 90.8447 14.634 0.735004
6308 1 92.5784 14.9418 2.49504
6309 1 92.8911 13.2098 0.735336
6310 1 94.6257 13.5192 2.49514
6312 1 96.3608 13.8287 0.735931
6313 1 98.4102 12.4086 0.735997
6314 1 100.145 12.7182 2.49525
6315 1 98.0957 14.1383 2.49524
6316 1 99.8305 14.4479 0.736008
6317 1 103.614 13.3369 2.49526
6318 1 101.879 13.0276 0.736014
6319 1 101.565 14.7574 2.49524
6320 1 103.299 15.0669 0.736013
6321 1 105.347 13.6461 0.736029
6248 1 107.396 12.2248 0.736045
6323 1 109.129 12.5337 2.4953
6324 1 107.081 13.9552 2.49529
6325 1 108.814 14.2643 0.736054
6326 1 110.862 12.8426 0.736071
6327 1 112.595 13.1514 2.49533
6328 1 110.547 14.5734 2.49532
6329 1 112.28 14.8825 0.736084
6330 1 114.327 13.4603 0.736102
6258 1 118.107 12.3465 2.49538
6332 1 116.06 13.7691 2.49537
6333 1 117.792 14.078 0.736139
6334 1 119.84 12.6552 0.736157
6335 1 121.572 12.9639 2.49543
6336 1 119.525 14.3868 2.49541
6337 1 121.257 14.6955 0.736184
6338 1 123.304 13.2726 0.736203
6339 1 122.989 15.0043 2.49546
6267 1 127.083 12.1579 2.49549
6341 1 125.036 13.5812 2.49548
6342 1 126.768 13.8898 0.736258
6343 1 128.815 12.4663 0.736273
6344 1 130.547 12.7745 2.49555
6345 1 128.5 14.1982 2.49554
6346 1 130.232 14.5066 0.736325
6347 1 132.279 13.0827 0.736339
6348 1 131.964 14.8149 2.49561
6349 1 134.011 13.3907 2.49562
6350 1 135.743 13.6986 0.736411
6351 1 133.696 15.1231 0.736407
6277 1 137.791 12.2737 0.736392
6352 1 139.522 12.5812 2.49569
6353 1 137.475 14.0064 2.49569
6354 1 139.206 14.3143 0.736475
6355 1 141.253 12.8886 0.736479
6356 1 140.936 14.6223 2.49585
6357 1 142.983 13.196 2.4959
6358 1 144.712 13.5031 0.736767
6359 1 142.666 14.9305 0.736694
6361 1 148.488 12.3812 2.49488
6362 1 146.44 13.8098 2.4956
6363 1 148.167 14.1154 0.736441
6364 1 150.218 12.6895 0.735572
6365 1 149.894 14.4206 2.49356
6366 1 151.943 13.0009 2.49546
6367 1 153.688 13.3042 0.734235
6369 1 151.627 14.7272 0.733926
6368 1 153.349 15.0267 2.49647
6370 1 155.443 13.6405 2.50301
389 1 1.61308 15.4354 2.51852
390 1 0.803776 17.8154 2.43593
391 1 2.33474 16.9263 0.739603
392 1 5.44809 15.5 0.728791
393 1 3.93028 16.2566 2.50974
394 1 4.62496 17.9054 0.716672
395 1 6.25034 17.0779 2.48753
396 1 8.62905 17.8477 2.48738
397 1 7.82923 16.2759 0.734119
398 1 9.41245 15.4791 2.4899
399 1 11.7827 16.2551 2.49303
400 1 10.206 17.0507 0.734921
401 1 13.3607 15.46 0.734826
402 1 14.1511 17.0292 2.49389
403 1 12.5761 17.8252 0.734821
404 1 17.3047 15.4376 2.49419
405 1 16.5183 17.8022 2.49406
406 1 15.7277 16.2333 0.734769
407 1 19.6707 16.2097 2.49416
408 1 18.0942 17.0059 0.734798
409 1 20.4603 17.778 0.734858
410 1 21.2476 15.4134 0.734922
411 1 22.0365 16.9816 2.49418
412 1 23.6129 16.1851 0.734974
413 1 25.1894 15.3886 2.49426
414 1 24.4019 17.7533 2.49423
415 1 25.978 16.9567 0.735023
338 1 29.1303 15.3635 0.735101
416 1 27.5542 16.1601 2.49431
417 1 28.3429 17.7283 0.735071
418 1 29.9189 16.9317 2.49435
419 1 32.2835 17.7032 2.49439
420 1 31.4949 16.135 0.735139
344 1 33.0708 15.3383 2.49441
421 1 35.4352 16.1098 2.49445
422 1 33.8594 16.9065 0.735175
348 1 37.0111 15.3131 0.735223
423 1 37.7996 16.8814 2.49448
424 1 36.2238 17.6781 0.735209
350 1 40.9512 15.288 2.49451
425 1 40.164 17.653 2.49451
426 1 39.3754 16.0847 0.73525
427 1 43.3155 16.0597 2.49454
428 1 41.7398 16.8563 0.735276
429 1 44.1042 17.628 0.7353
356 1 44.8912 15.263 0.735301
430 1 45.6799 16.8314 2.49456
431 1 47.2555 16.0347 0.735318
360 1 48.8311 15.2381 2.49457
432 1 48.0442 17.6031 2.49457
433 1 49.6199 16.8065 0.735332
362 1 52.7708 15.2133 0.735332
435 1 51.1954 16.0099 2.49458
436 1 51.9843 17.5783 0.735343
437 1 53.5597 16.7818 2.49458
438 1 55.9241 17.5537 2.49458
439 1 55.135 15.9851 0.735332
367 1 56.71 15.1884 2.49457
441 1 59.0739 15.9603 2.49455
442 1 57.4992 16.7571 0.735322
371 1 60.6484 15.1635 0.735266
444 1 61.4378 16.7322 2.49453
445 1 59.8635 17.5291 0.735298
447 1 63.8017 17.504 2.49452
448 1 63.0118 15.9352 0.735208
449 1 65.3749 16.7066 0.735149
451 1 66.948 15.909 2.49472
452 1 67.7371 17.4776 0.73516
453 1 69.3088 16.6795 2.49542
455 1 70.8832 15.8816 0.736512
456 1 71.6663 17.4492 2.49633
458 1 73.2403 16.6498 0.736547
459 1 74.8361 15.8555 2.49366
460 1 77.2174 16.6066 2.47263
461 1 75.5949 17.4113 0.735559
462 1 77.9732 18.1464 0.727054
6372 1 79.5283 17.497 2.54802
6373 1 78.9371 15.8885 0.662192
6375 1 81.7102 16.6797 2.45205
6376 1 85.3362 15.4496 0.752826
6377 1 83.3201 16.9154 0.731531
6378 1 85.015 17.1836 2.49301
6379 1 86.7534 17.4961 0.740619
6380 1 87.0733 15.7583 2.49359
6381 1 88.8013 16.0634 0.736196
6382 1 88.4912 17.7989 2.49402
6384 1 90.534 16.3681 2.49497
6383 1 90.2236 18.1018 0.735645
6311 1 94.3127 15.2501 0.735749
6386 1 92.2667 16.6741 0.735435
6387 1 94.0004 16.9815 2.49531
6388 1 96.0473 15.559 2.49524
6389 1 95.7346 17.2898 0.735946
6390 1 97.4689 17.5988 2.49522
6391 1 97.782 15.8683 0.735999
6392 1 99.5165 16.1778 2.49523
6393 1 99.2029 17.9081 0.736003
6395 1 102.984 16.797 2.49525
6396 1 101.251 16.4874 0.736004
6322 1 105.033 15.3763 2.49527
6397 1 106.766 15.6857 0.736036
6398 1 106.451 17.4163 2.49528
6399 1 104.718 17.1067 0.736018
6400 1 108.499 15.995 2.4953
6401 1 108.184 17.7258 0.736045
6402 1 111.965 16.6135 2.49533
6403 1 110.232 16.3043 0.736065
6404 1 109.917 18.0352 2.49531
6331 1 114.012 15.1915 2.49535
6406 1 115.745 15.5004 0.73612
6407 1 115.43 17.2318 2.49536
6408 1 113.697 16.9227 0.736099
6409 1 117.477 15.8094 2.49539
6410 1 117.162 17.5408 0.736139
6411 1 120.942 16.4272 2.49543
6412 1 119.209 16.1183 0.736163
6413 1 118.894 17.8499 2.49541
6414 1 120.626 18.1588 0.736188
6340 1 124.721 15.313 0.736238
6415 1 124.406 17.0449 2.49549
6416 1 122.674 16.736 0.736215
6417 1 126.453 15.6217 2.49552
6418 1 126.138 17.3536 0.736277
6419 1 128.185 15.9303 0.736304
6420 1 129.917 16.2388 2.49559
6421 1 127.869 17.6624 2.49556
6422 1 129.601 17.9711 0.736355
6423 1 133.38 16.8558 2.49568
6424 1 131.648 16.5473 0.736386
6426 1 135.427 15.4313 2.49569
6427 1 135.111 17.1642 0.736484
6428 1 137.158 15.7394 0.736489
6429 1 138.889 16.0477 2.4958
6430 1 136.842 17.4728 2.49578
6431 1 138.572 17.7814 0.736572
6432 1 142.348 16.665 2.49615
6433 1 140.619 16.3562 0.736592
6434 1 140.301 18.0902 2.49599
6360 1 144.394 15.2387 2.49623
6436 1 144.077 16.974 0.737177
6437 1 146.121 15.546 0.737318
6438 1 147.849 15.8526 2.49482
6439 1 145.805 17.283 2.49646
6440 1 147.531 17.5906 0.738049
6441 1 151.301 16.4552 2.49098
6442 1 149.575 16.1561 0.735425
6443 1 149.259 17.8963 2.49213
6445 1 153.042 16.7634 0.730543
6371 1 155.093 15.2992 0.734155
6446 1 156.742 15.6551 2.50733
6447 1 154.722 17.0615 2.51197
6448 1 156.467 17.2894 0.743215
464 1 2.50919 20.9416 2.67844
465 1 2.11523 19.2444 0.725254
2535 1 0.0764124 21.0581 2.71289
466 1 3.19569 18.5908 2.6463
467 1 5.50488 19.4468 2.51289
468 1 4.06456 20.3553 0.729441
469 1 7.04199 18.6492 0.730844
470 1 7.87092 20.2213 2.4964
471 1 6.34685 21.0416 0.730079
472 1 11.0015 18.6224 2.49115
473 1 10.235 20.9948 2.49287
474 1 9.42638 19.4219 0.733621
475 1 11.7989 20.1944 0.734326
476 1 13.3704 19.396 2.493
477 1 14.166 20.9669 0.734547
478 1 14.9438 18.5987 0.734743
479 1 15.7372 20.1687 2.49369
480 1 17.3104 19.3714 0.734754
481 1 18.8848 18.5746 2.49409
482 1 18.1029 20.9409 2.49394
483 1 19.6762 20.1436 0.734811
484 1 22.826 18.5499 0.734923
485 1 21.2507 19.3466 2.49413
486 1 23.6161 20.1185 2.49419
487 1 22.0416 20.9155 0.734882
488 1 25.9812 20.8902 2.49425
489 1 25.1914 19.3217 0.734985
490 1 26.767 18.525 2.49428
491 1 29.1319 19.2966 2.49433
492 1 27.5564 20.0933 0.735042
493 1 30.7077 18.4999 0.735116
494 1 31.4966 20.0682 2.49437
495 1 29.9212 20.865 0.735095
496 1 34.648 18.4748 2.49443
497 1 33.8612 20.8398 2.49442
498 1 33.0723 19.2715 0.735158
499 1 35.4368 20.043 0.735198
500 1 38.5882 18.4497 0.735242
501 1 37.0125 19.2463 2.49447
502 1 37.8012 20.8146 0.735235
503 1 39.3769 20.0179 2.4945
504 1 40.9526 19.2213 0.735273
505 1 42.5284 18.4246 2.49453
506 1 41.7413 20.7896 2.49453
507 1 43.317 19.9929 0.735302
508 1 46.4685 18.3997 0.735322
509 1 44.8928 19.1963 2.49456
510 1 47.2571 19.968 2.49458
511 1 45.6813 20.7646 0.735328
434 1 50.4087 18.3749 2.49459
512 1 49.6215 20.7398 2.4946
513 1 48.8329 19.1714 0.735341
514 1 52.7732 19.1468 2.4946
515 1 51.1974 19.9432 0.735357
440 1 54.3488 18.3503 0.735349