ITEM: TIMESTEP
7939
ITEM: NUMBER OF ATOMS
28800
ITEM: BOX BOUNDS pp pp pp
-2.6816730168942077e-01 1.3061216730168945e+02
9.3606848790801292e-02 5.4216393151209260e+01
5.9893167382827385e-02 8.1405106832616980e+01
ITEM: ATOMS id type x y z
5 1 0.961879 1.39557 1.48804
1201 1 5.23884 0.133184 0.0970482
1205 1 6.59033 1.49833 1.45212
2401 1 10.6729 0.148766 0.0961398
2405 1 12.0343 1.50196 1.4518
3601 1 16.1174 0.150547 0.0957446
3605 1 17.4785 1.50429 1.45093
4801 1 21.5618 0.152594 0.0947741
4805 1 22.9229 1.50632 1.44997
6001 1 27.0062 0.154634 0.0938135
6005 1 28.3673 1.50837 1.44901
7201 1 32.4506 0.156675 0.0928529
7205 1 33.8117 1.51041 1.44805
8401 1 37.895 0.158715 0.0918922
8405 1 39.2561 1.51245 1.44709
9601 1 43.3393 0.160757 0.0909349
9605 1 44.7004 1.51449 1.44613
10801 1 48.7837 0.162727 0.0899028
10805 1 50.1447 1.51653 1.44506
12001 1 54.2261 0.169513 0.0930472
12005 1 55.5949 1.52261 1.44386
13205 1 60.9966 1.55298 1.3572
15587 1 66.4037 1.0255 0.741674
16787 1 72.0303 1.11454 0.680962
17987 1 77.4742 1.11701 0.678366
19187 1 82.9184 1.11915 0.677127
20387 1 88.3628 1.1212 0.676171
21587 1 93.8072 1.12324 0.675211
22787 1 99.2515 1.12529 0.674252
23987 1 104.696 1.12733 0.673293
25187 1 110.14 1.12937 0.672332
26387 1 115.585 1.13151 0.671427
27587 1 121.035 1.13609 0.667449
28787 1 126.436 1.22365 0.694782
4 1 2.45172 2.78126 0.16711
6 1 3.82109 4.19261 1.46713
1204 1 7.95026 2.85164 0.0958516
1206 1 9.31437 4.2046 1.45008
2404 1 13.3953 2.85566 0.0962422
2406 1 14.7563 4.20943 1.45142
3604 1 18.8396 2.85771 0.0952527
3606 1 20.2007 4.21144 1.45045
4804 1 24.284 2.85975 0.0942939
4806 1 25.6451 4.21348 1.44949
6004 1 29.7284 2.86179 0.0933332
6006 1 31.0895 4.21552 1.44853
7204 1 35.1728 2.86383 0.0923726
7206 1 36.5339 4.21756 1.44757
8404 1 40.6172 2.86587 0.0914124
8406 1 41.9783 4.2196 1.44661
9604 1 46.0615 2.86791 0.0904473
9606 1 47.4226 4.22166 1.44563
10804 1 51.5059 2.87041 0.0898202
10806 1 52.8678 4.22285 1.44591
12004 1 56.9538 2.87811 0.0861344
12006 1 58.3017 4.24705 1.44446
13204 1 62.4422 3.00037 0.127942
13206 1 63.8337 3.88033 1.89688
15600 1 66.7363 4.93028 0.124986
14801 1 69.3091 3.2483 2.27885
15598 1 67.8934 2.91156 0.423488
16800 1 72.0233 4.8994 0.135187
16001 1 74.7502 3.28135 2.3081
16798 1 73.3918 3.00942 0.409998
17998 1 78.8367 3.01153 0.40664
18000 1 77.4741 4.90578 0.13599
17201 1 80.1962 3.28301 2.30451
19198 1 84.2811 3.01361 0.405686
19200 1 82.9184 4.90774 0.134828
18401 1 85.6406 3.28508 2.30356
20400 1 88.3628 4.90979 0.13387
19601 1 91.085 3.28713 2.3026
20398 1 89.7255 3.01565 0.404726
21600 1 93.8072 4.91184 0.13291
20801 1 96.5293 3.28917 2.30164
21598 1 95.1699 3.0177 0.403766
22798 1 100.614 3.01974 0.402807
22800 1 99.2515 4.91388 0.131951
22001 1 101.974 3.29122 2.30068
23998 1 106.059 3.02179 0.401847
24000 1 104.696 4.91592 0.130991
23201 1 107.418 3.29326 2.29972
25200 1 110.14 4.91797 0.130035
24401 1 112.862 3.2953 2.29877
25198 1 111.503 3.02383 0.400896
26400 1 115.585 4.92012 0.128974
25601 1 118.306 3.29826 2.2974
26398 1 116.947 3.02589 0.399368
27598 1 122.395 3.03348 0.395784
27600 1 121.027 4.92183 0.131901
26801 1 123.74 3.30884 2.30613
28798 1 127.883 3.07338 0.272493
28800 1 126.425 4.9183 0.0646748
28001 1 129.244 4.14468 1.90163
125 1 1.0677 6.941 1.36981
1321 1 5.21762 5.54104 0.115015
1325 1 6.59359 6.90228 1.4493
2521 1 10.6729 5.56116 0.0955522
2525 1 12.0339 6.91439 1.45159
3721 1 16.1174 5.56283 0.0957473
3725 1 17.4785 6.91656 1.45093
4921 1 21.5618 5.56487 0.0947735
4925 1 22.9229 6.9186 1.44997
6121 1 27.0062 5.56691 0.0938135
6125 1 28.3673 6.92064 1.44901
7321 1 32.4506 5.56895 0.0928529
7325 1 33.8117 6.92268 1.44805
8521 1 37.895 5.57099 0.0918924
8525 1 39.2561 6.92472 1.44709
9721 1 43.3393 5.57303 0.0909306
9725 1 44.7004 6.92677 1.44612
10921 1 48.7838 5.57511 0.0899988
10925 1 50.145 6.92865 1.44528
12121 1 54.2269 5.57564 0.0886415
12125 1 55.58 6.93205 1.44877
13321 1 59.6905 5.63078 0.147147
13325 1 61.1729 6.94142 1.46672
14799 1 65.4361 5.73058 1.87846
14800 1 69.317 7.0927 1.76908
15999 1 70.6559 5.17061 2.02686
16000 1 74.7518 7.06863 1.75965
17199 1 76.1141 5.17486 2.03394
17200 1 80.1962 7.07166 1.76224
18399 1 81.5589 5.17749 2.03307
18400 1 85.6406 7.07368 1.76125
19599 1 87.0033 5.17954 2.03211
19600 1 91.085 7.07572 1.76029
20799 1 92.4477 5.18159 2.03115
20800 1 96.5293 7.07777 1.75933
21999 1 97.8921 5.18363 2.03019
22000 1 101.974 7.07981 1.75838
23199 1 103.336 5.18568 2.02923
23200 1 107.418 7.08186 1.75742
24399 1 108.781 5.18772 2.02827
24400 1 112.862 7.08389 1.75645
25599 1 114.225 5.18973 2.02725
25600 1 118.307 7.08757 1.75571
26799 1 119.668 5.19379 2.02939
26800 1 123.778 7.08028 1.76688
27999 1 125.14 5.16688 2.03931
28000 1 128.775 6.64821 2.03141
124 1 2.54326 8.26934 0.125098
126 1 3.86918 9.62141 1.49462
1324 1 7.94635 8.2666 0.0942675
1326 1 9.31032 9.61774 1.45051
2524 1 13.3952 8.26795 0.0962557
2526 1 14.7563 9.62167 1.45143
3724 1 18.8396 8.26999 0.0952527
3726 1 20.2007 9.62372 1.45045
4924 1 24.284 8.27203 0.0942939
4926 1 25.6451 9.62576 1.44949
6124 1 29.7284 8.27407 0.0933332
6126 1 31.0895 9.6278 1.44853
7324 1 35.1728 8.27611 0.0923727
7326 1 36.5339 9.62984 1.44757
8524 1 40.6172 8.27815 0.0914122
8526 1 41.9783 9.63188 1.44661
9724 1 46.0615 8.2802 0.0904514
9726 1 47.4226 9.63391 1.44565
10924 1 51.5059 8.28202 0.0894584
10926 1 52.8662 9.63682 1.44421
12124 1 56.933 8.28388 0.0874223
12126 1 58.3002 9.63655 1.43044
13324 1 62.6606 8.20295 0.0872727
14402 1 65.1322 8.29285 1.54743
15602 1 70.6737 8.9763 1.48938
16802 1 76.1154 8.96319 1.49172
18002 1 81.5589 8.96611 1.49077
19202 1 87.0033 8.96814 1.48981
20402 1 92.4477 8.97018 1.48885
21602 1 97.8921 8.97223 1.48789
22802 1 103.336 8.97427 1.48693
24002 1 108.781 8.97632 1.48597
25202 1 114.225 8.97839 1.48502
26402 1 119.673 8.97983 1.48274
27602 1 125.103 9.01142 1.49336
245 1 1.29799 12.3505 1.43964
1441 1 5.21435 10.9759 0.104839
1445 1 6.58336 12.3235 1.45725
2641 1 10.6726 10.9728 0.09723
2645 1 12.0342 12.3267 1.4517
3841 1 16.1174 10.9751 0.0957392
3845 1 17.4785 12.3288 1.45093
5041 1 21.5618 10.9772 0.0947742
5045 1 22.9229 12.3309 1.44997
6241 1 27.0062 10.9792 0.0938134
6245 1 28.3673 12.3329 1.44901
7441 1 32.4506 10.9812 0.0928529
7445 1 33.8117 12.335 1.44805
8641 1 37.895 10.9833 0.0918925
8645 1 39.2561 12.337 1.44709
9841 1 43.3393 10.9853 0.0909306
9845 1 44.7004 12.339 1.44612
11041 1 48.7837 10.9874 0.0900373
11045 1 50.1449 12.3412 1.44514
12241 1 54.2268 10.9881 0.0856127
12245 1 55.587 12.3399 1.44217
13441 1 59.6983 10.9642 0.101266
13445 1 60.986 12.3916 1.48511
13326 1 63.8027 10.4608 1.00245
15181 1 69.2611 10.8378 1.22382
16381 1 74.7542 10.8584 1.22443
17581 1 80.1962 10.8602 1.21988
18781 1 85.6406 10.8623 1.21895
19981 1 91.085 10.8643 1.21799
21181 1 96.5293 10.8664 1.21703
22381 1 101.974 10.8684 1.21607
23581 1 107.418 10.8705 1.21511
24781 1 112.862 10.8725 1.21416
25981 1 118.308 10.8731 1.21313
27181 1 123.741 10.8888 1.19483
28381 1 129.276 10.3078 1.21919
244 1 2.57919 13.7472 0.0880907
1444 1 7.9472 13.6773 0.100508
2644 1 13.3953 13.6803 0.0961856
3844 1 18.8396 13.6823 0.095256
5044 1 24.284 13.6843 0.0942937
6244 1 29.7284 13.6864 0.0933332
7444 1 35.1728 13.6884 0.0923727
8644 1 40.6172 13.6904 0.0914122
9844 1 46.0615 13.6925 0.0904564
11044 1 51.5059 13.6944 0.0891211
12244 1 56.96 13.679 0.0870407
13446 1 63.8832 14.8528 1.20019
15176 1 65.2271 12.75 1.10073
15180 1 69.3523 14.6475 0.642215
16376 1 70.6593 12.7261 0.954058
16380 1 74.7501 14.6474 0.678235
17576 1 76.1144 12.7538 0.94982
17580 1 80.1962 14.6488 0.67757
18776 1 81.5589 12.7547 0.948461
18780 1 85.6406 14.6509 0.676652
19976 1 87.0033 12.7567 0.947507
19980 1 91.085 14.6529 0.675691
21176 1 92.4477 12.7588 0.946547
21180 1 96.5293 14.655 0.674732
22376 1 97.8921 12.7608 0.945588
22380 1 101.974 14.657 0.673772
23576 1 103.336 12.7629 0.944629
23580 1 107.418 14.659 0.672813
24776 1 108.781 12.7649 0.943672
24780 1 112.862 14.6611 0.671845
25976 1 114.225 12.767 0.942665
25980 1 118.307 14.6629 0.671296
27176 1 119.668 12.7684 0.94315
27180 1 123.734 14.6363 0.668532
28376 1 125.131 12.7548 0.864198
28380 1 129.323 14.7391 0.974574
361 1 -0.220911 16.5383 0.155544
246 1 3.91263 15.0615 1.47315
1561 1 5.2397 16.3983 0.0826802
1446 1 9.31021 15.0326 1.4521
2761 1 10.6729 16.3855 0.0971722
2646 1 14.7564 15.034 1.45144
3961 1 16.1174 16.3874 0.0957248
3846 1 20.2007 15.036 1.45045
5161 1 21.5618 16.3894 0.0947747
5046 1 25.6451 15.038 1.44949
6361 1 27.0062 16.3915 0.0938135
6246 1 31.0895 15.0401 1.44853
7561 1 32.4506 16.3935 0.0928529
7446 1 36.5339 15.0421 1.44757
8761 1 37.895 16.3956 0.0918925
8646 1 41.9783 15.0442 1.4466
9961 1 43.3393 16.3976 0.0909313
9846 1 47.4226 15.0462 1.44566
11161 1 48.7837 16.3996 0.0899774
11046 1 52.8669 15.0478 1.4446
12361 1 54.229 16.399 0.0875017
12246 1 58.2937 15.0335 1.46804
13561 1 59.6297 16.3791 0.105282
14412 1 66.5258 16.7811 2.27819
15291 1 65.2208 16.5856 0.250482
15612 1 72.0355 16.8143 2.306
16491 1 70.681 16.56 0.405098
17691 1 76.1144 16.541 0.40669
16812 1 77.4741 16.8127 2.30454
18891 1 81.5589 16.5433 0.406172
18012 1 82.9184 16.8148 2.30404
19212 1 88.3628 16.8168 2.30308
20091 1 87.0033 16.5453 0.405205
20412 1 93.8072 16.8188 2.30212
21291 1 92.4477 16.5474 0.404246
22491 1 97.8921 16.5494 0.403286
21612 1 99.2515 16.8209 2.30116
23691 1 103.336 16.5515 0.402327
22812 1 104.696 16.8229 2.3002
24891 1 108.781 16.5535 0.401368
24012 1 110.14 16.825 2.29924
25212 1 115.585 16.8271 2.29826
26091 1 114.225 16.5555 0.400408
27291 1 119.67 16.5572 0.402443
26412 1 121.035 16.8207 2.2984
28491 1 125.072 16.5315 0.407397
27612 1 126.426 16.893 2.27206
365 1 1.26138 17.793 1.49211
1565 1 6.58577 17.7482 1.45564
1564 1 7.95224 19.094 0.0993216
2764 1 13.3953 19.0924 0.0962891
2765 1 12.034 17.7392 1.45219
3964 1 18.8396 19.0946 0.0952558
3965 1 17.4785 17.7411 1.45093
5165 1 22.9229 17.7432 1.44997
5164 1 24.284 19.0966 0.0942937
6365 1 28.3673 17.7452 1.44901
6364 1 29.7284 19.0986 0.0933332
7564 1 35.1728 19.1007 0.0923727
7565 1 33.8117 17.7472 1.44805
8764 1 40.6172 19.1027 0.0914122
8765 1 39.2561 17.7493 1.44709
9965 1 44.7004 17.7513 1.44612
9964 1 46.0615 19.1048 0.0904554
11165 1 50.1448 17.7533 1.44525
11164 1 51.5057 19.1067 0.0894258
12364 1 56.9604 19.1116 0.0847852
12365 1 55.5885 17.7593 1.43598
13565 1 61.0407 17.6118 1.50794
14411 1 67.8547 18.7338 2.05124
15290 1 69.2961 18.4534 0.194456
15611 1 73.3997 18.7052 2.03631
16490 1 74.7528 18.4352 0.133944
16811 1 78.8366 18.7073 2.03353
17690 1 80.1962 18.4374 0.135356
18011 1 84.2811 18.7092 2.03259
18890 1 85.6406 18.4395 0.134347
19211 1 89.7255 18.7113 2.03163
20090 1 91.085 18.4415 0.13339
20411 1 95.1699 18.7133 2.03067
21290 1 96.5293 18.4436 0.13243
21611 1 100.614 18.7154 2.02971
22490 1 101.974 18.4456 0.131471
22811 1 106.059 18.7174 2.02875
23690 1 107.418 18.4476 0.130512
24011 1 111.503 18.7194 2.02779
24890 1 112.862 18.4497 0.129555
25211 1 116.948 18.7213 2.0268
26090 1 118.307 18.4509 0.128441
26411 1 122.386 18.7219 2.01306
27290 1 123.764 18.4684 0.124641
27611 1 127.958 18.6496 1.83361
366 1 3.87709 20.4533 1.43015
1681 1 5.23227 21.8068 0.0883396
1566 1 9.31196 20.4465 1.45526
2881 1 10.6739 21.7971 0.0973843
2766 1 14.7564 20.4462 1.45137
4081 1 16.1174 21.7997 0.0957191
3966 1 20.2007 20.4483 1.45045
5281 1 21.5618 21.8017 0.0947747
5166 1 25.6451 20.4503 1.44949
6481 1 27.0062 21.8037 0.0938134
6366 1 31.0895 20.4524 1.44853
7681 1 32.4506 21.8058 0.0928529
7566 1 36.5339 20.4544 1.44757
8881 1 37.895 21.8078 0.0918924
8766 1 41.9783 20.4564 1.4466
10081 1 43.3393 21.8099 0.0909331
9966 1 47.4227 20.4585 1.44566
11281 1 48.7837 21.8119 0.0899436
11166 1 52.8671 20.4613 1.44326
12481 1 54.2317 21.8147 0.0902586
12366 1 58.3379 20.4482 1.44232
13566 1 63.3356 19.9745 1.62753
14408 1 66.5063 20.6818 1.79108
15608 1 72.0336 20.596 1.77382
16808 1 77.4738 20.6015 1.76298
18008 1 82.9184 20.6033 1.76173
19208 1 88.3628 20.6054 1.76077
20408 1 93.8072 20.6074 1.75981
21608 1 99.2515 20.6095 1.75885
22808 1 104.696 20.6115 1.7579
24008 1 110.14 20.6136 1.75694
25208 1 115.585 20.6154 1.75604
26408 1 121.02 20.6148 1.75131
27608 1 126.612 20.6058 1.73403
481 1 130.569 21.3492 0.602693
485 1 1.08541 23.1542 1.49339
484 1 2.41296 24.5067 0.0640768
1685 1 6.59571 23.1514 1.44992
1684 1 7.95822 24.5014 0.0959382
2884 1 13.3952 24.5049 0.096104
2885 1 12.0343 23.1517 1.45216
4084 1 18.8396 24.5068 0.0952561
4085 1 17.4785 23.1534 1.45092
5285 1 22.9229 23.1554 1.44997
5284 1 24.284 24.5089 0.0942938
6485 1 28.3673 23.1575 1.44901
6484 1 29.7284 24.5109 0.0933332
7684 1 35.1728 24.5129 0.0923726
7685 1 33.8117 23.1595 1.44805
8884 1 40.6172 24.515 0.091412
8885 1 39.2561 23.1616 1.44709
10085 1 44.7004 23.1636 1.44613
10084 1 46.0615 24.517 0.0904498
11285 1 50.1448 23.1657 1.4451
11284 1 51.5063 24.519 0.0896338
12484 1 56.9444 24.5303 0.0974061
12485 1 55.5957 23.1618 1.45023
13684 1 62.5158 24.6344 0.266312
13685 1 60.9868 23.2263 1.409
15384 1 66.7016 24.3894 1.15302
14433 1 67.9843 22.4722 1.47276
16584 1 72.0256 24.3923 1.21086
15633 1 73.3879 22.4965 1.49339
16833 1 78.8367 22.4957 1.49123
17784 1 77.4739 24.3898 1.22008
18033 1 84.2811 22.4978 1.49029
18984 1 82.9184 24.392 1.21943
20184 1 88.3628 24.394 1.21847
19233 1 89.7255 22.4999 1.48933
21384 1 93.8072 24.396 1.21751
20433 1 95.1699 22.5019 1.48837
21633 1 100.614 22.5039 1.48741
22584 1 99.2515 24.3981 1.21655
22833 1 106.059 22.506 1.48645
23784 1 104.696 24.4001 1.21559
24984 1 110.14 24.4022 1.21463
24033 1 111.503 22.508 1.48549
26184 1 115.585 24.4041 1.21368
25233 1 116.947 22.51 1.48471
26433 1 122.375 22.5128 1.48455
27384 1 121.028 24.4151 1.21454
27633 1 128.102 22.4633 1.54952
28584 1 126.482 24.2696 1.28892
486 1 3.85619 25.8207 1.40279
1686 1 9.31291 25.8582 1.4539
2886 1 14.7563 25.8585 1.45137
4086 1 20.2007 25.8606 1.45045
5286 1 25.6451 25.8626 1.44949
6486 1 31.0895 25.8646 1.44853
7686 1 36.5339 25.8667 1.44757
8886 1 41.9783 25.8687 1.44661
10086 1 47.4226 25.8708 1.44564
11286 1 52.8671 25.8724 1.44544
12486 1 58.3238 25.886 1.43372
13686 1 64.0417 26.2627 1.45723
15383 1 67.9832 26.3245 0.990913
16583 1 73.3937 26.2827 0.945803
17783 1 78.8368 26.2842 0.949012
18983 1 84.2811 26.2864 0.947984
20183 1 89.7255 26.2885 0.947027
21383 1 95.1699 26.2905 0.946068
22583 1 100.614 26.2925 0.945108
23783 1 106.059 26.2946 0.944149
24983 1 111.503 26.2966 0.943183
26183 1 116.947 26.2987 0.942323
27383 1 122.402 26.3053 0.941374
28583 1 127.608 26.3219 1.17031
605 1 0.961879 28.457 1.48804
1801 1 5.23884 27.1946 0.0970482
1805 1 6.59033 28.5597 1.45212
3001 1 10.6729 27.2102 0.0961398
3005 1 12.0343 28.5634 1.4518
4201 1 16.1174 27.2119 0.0957446
4205 1 17.4785 28.5657 1.45093
5401 1 21.5618 27.214 0.0947741
5405 1 22.9229 28.5677 1.44997
6601 1 27.0062 27.216 0.0938135
6605 1 28.3673 28.5698 1.44901
7801 1 32.4506 27.2181 0.0928529
7805 1 33.8117 28.5718 1.44805
9001 1 37.895 27.2201 0.0918922
9005 1 39.2561 28.5738 1.44709
10201 1 43.3393 27.2221 0.0909349
10205 1 44.7004 28.5759 1.44613
11401 1 48.7837 27.2241 0.0899028
11405 1 50.1447 28.5779 1.44506
12601 1 54.2261 27.2309 0.0930472
12605 1 55.5949 28.584 1.44386
13805 1 60.9966 28.6144 1.3572
15381 1 66.4037 28.0869 0.741674
16581 1 72.0303 28.1759 0.680962
17781 1 77.4742 28.1784 0.678366
18981 1 82.9184 28.1805 0.677127
20181 1 88.3628 28.1826 0.676171
21381 1 93.8072 28.1846 0.675211
22581 1 99.2515 28.1867 0.674252
23781 1 104.696 28.1887 0.673293
24981 1 110.14 28.1908 0.672332
26181 1 115.585 28.1929 0.671427
27381 1 121.035 28.1975 0.667449
28581 1 126.436 28.285 0.694782
604 1 2.45172 29.8427 0.16711
606 1 3.82109 31.254 1.46713
1804 1 7.95026 29.913 0.0958516
1806 1 9.31437 31.266 1.45008
3004 1 13.3953 29.9171 0.0962422
3006 1 14.7563 31.2708 1.45142
4204 1 18.8396 29.9191 0.0952527
4206 1 20.2007 31.2728 1.45045
5404 1 24.284 29.9211 0.0942939
5406 1 25.6451 31.2749 1.44949
6604 1 29.7284 29.9232 0.0933332
6606 1 31.0895 31.2769 1.44853
7804 1 35.1728 29.9252 0.0923726
7806 1 36.5339 31.279 1.44757
9004 1 40.6172 29.9273 0.0914124
9006 1 41.9783 31.281 1.44661
10204 1 46.0615 29.9293 0.0904473
10206 1 47.4226 31.2831 1.44563
11404 1 51.5059 29.9318 0.0898202
11406 1 52.8678 31.2842 1.44591
12604 1 56.9538 29.9395 0.0861344
12606 1 58.3017 31.3084 1.44446
13804 1 62.4422 30.0618 0.127942
13806 1 63.8337 30.9417 1.89688
15460 1 66.7363 31.9917 0.124986
14473 1 69.3091 30.3097 2.27885
15458 1 67.8934 29.973 0.423488
16660 1 72.0233 31.9608 0.135187
15673 1 74.7502 30.3427 2.3081
16658 1 73.3918 30.0708 0.409998
17858 1 78.8367 30.0729 0.40664
17860 1 77.4741 31.9672 0.13599
16873 1 80.1962 30.3444 2.30451
19058 1 84.2811 30.075 0.405686
19060 1 82.9184 31.9691 0.134828
18073 1 85.6406 30.3465 2.30356
20260 1 88.3628 31.9712 0.13387
19273 1 91.085 30.3485 2.3026
20258 1 89.7255 30.077 0.404726
21460 1 93.8072 31.9732 0.13291
20473 1 96.5293 30.3506 2.30164
21458 1 95.1699 30.0791 0.403766
22658 1 100.614 30.0811 0.402807
22660 1 99.2515 31.9753 0.131951
21673 1 101.974 30.3526 2.30068
23858 1 106.059 30.0832 0.401847
23860 1 104.696 31.9773 0.130991
22873 1 107.418 30.3547 2.29972
25060 1 110.14 31.9794 0.130035
24073 1 112.862 30.3567 2.29877
25058 1 111.503 30.0852 0.400896
26260 1 115.585 31.9815 0.128974
25273 1 118.306 30.3597 2.2974
26258 1 116.947 30.0873 0.399368
27458 1 122.395 30.0949 0.395784
27460 1 121.027 31.9832 0.131901
26473 1 123.74 30.3702 2.30613
28658 1 127.883 30.1348 0.272493
28660 1 126.425 31.9797 0.0646748
27673 1 129.244 31.2061 1.90163
725 1 1.0677 34.0024 1.36981
1921 1 5.21762 32.6024 0.115015
1925 1 6.59359 33.9637 1.4493
3121 1 10.6729 32.6226 0.0955522
3125 1 12.0339 33.9758 1.45159
4321 1 16.1174 32.6242 0.0957473
4325 1 17.4785 33.978 1.45093
5521 1 21.5618 32.6263 0.0947735
5525 1 22.9229 33.98 1.44997
6721 1 27.0062 32.6283 0.0938135
6725 1 28.3673 33.982 1.44901
7921 1 32.4506 32.6303 0.0928529
7925 1 33.8117 33.9841 1.44805
9121 1 37.895 32.6324 0.0918924
9125 1 39.2561 33.9861 1.44709
10321 1 43.3393 32.6344 0.0909306
10325 1 44.7004 33.9882 1.44612
11521 1 48.7838 32.6365 0.0899988
11525 1 50.145 33.99 1.44528
12721 1 54.2269 32.637 0.0886415
12725 1 55.58 33.9934 1.44877
13921 1 59.6905 32.6922 0.147147
13925 1 61.1729 34.0028 1.46672
14471 1 65.4361 32.792 1.87846
14472 1 69.317 34.1541 1.76908
15671 1 70.6559 32.232 2.02686
15672 1 74.7518 34.13 1.75965
16871 1 76.1141 32.2363 2.03394
16872 1 80.1962 34.133 1.76224
18071 1 81.5589 32.2389 2.03307
18072 1 85.6406 34.1351 1.76125
19271 1 87.0033 32.2409 2.03211
19272 1 91.085 34.1371 1.76029
20471 1 92.4477 32.243 2.03115
20472 1 96.5293 34.1392 1.75933
21671 1 97.8921 32.245 2.03019
21672 1 101.974 34.1412 1.75838
22871 1 103.336 32.2471 2.02923
22872 1 107.418 34.1433 1.75742
24071 1 108.781 32.2491 2.02827
24072 1 112.862 34.1453 1.75645
25271 1 114.225 32.2511 2.02725
25272 1 118.307 34.149 1.75571
26471 1 119.668 32.2552 2.02939
26472 1 123.778 34.1417 1.76688
27671 1 125.14 32.2283 2.03931
27672 1 128.775 33.7096 2.03141
724 1 2.54326 35.3307 0.125098
726 1 3.86918 36.6828 1.49462
1924 1 7.94635 35.328 0.0942675
1926 1 9.31032 36.6791 1.45051
3124 1 13.3952 35.3293 0.0962557
3126 1 14.7563 36.6831 1.45143
4324 1 18.8396 35.3314 0.0952527
4326 1 20.2007 36.6851 1.45045
5524 1 24.284 35.3334 0.0942939
5526 1 25.6451 36.6872 1.44949
6724 1 29.7284 35.3355 0.0933332
6726 1 31.0895 36.6892 1.44853
7924 1 35.1728 35.3375 0.0923727
7926 1 36.5339 36.6912 1.44757
9124 1 40.6172 35.3395 0.0914122
9126 1 41.9783 36.6933 1.44661
10324 1 46.0615 35.3416 0.0904514
10326 1 47.4226 36.6953 1.44565
11524 1 51.5059 35.3434 0.0894584
11526 1 52.8662 36.6982 1.44421
12724 1 56.933 35.3453 0.0874223
12726 1 58.3002 36.6979 1.43044
13924 1 62.6606 35.2643 0.0872727
14530 1 65.1322 35.3542 1.54743
15730 1 70.6737 36.0377 1.48938
16930 1 76.1154 36.0246 1.49172
18130 1 81.5589 36.0275 1.49077
19330 1 87.0033 36.0295 1.48981
20530 1 92.4477 36.0316 1.48885
21730 1 97.8921 36.0336 1.48789
22930 1 103.336 36.0357 1.48693
24130 1 108.781 36.0377 1.48597
25330 1 114.225 36.0398 1.48502
26530 1 119.673 36.0412 1.48274
27730 1 125.103 36.0728 1.49336
845 1 1.29799 39.4119 1.43964
2041 1 5.21435 38.0373 0.104839
2045 1 6.58336 39.3849 1.45725
3241 1 10.6726 38.0342 0.09723
3245 1 12.0342 39.3881 1.4517
4441 1 16.1174 38.0365 0.0957392
4445 1 17.4785 39.3902 1.45093
5641 1 21.5618 38.0385 0.0947742
5645 1 22.9229 39.3923 1.44997
6841 1 27.0062 38.0406 0.0938134
6845 1 28.3673 39.3943 1.44901
8041 1 32.4506 38.0426 0.0928529
8045 1 33.8117 39.3964 1.44805
9241 1 37.895 38.0447 0.0918925
9245 1 39.2561 39.3984 1.44709
10441 1 43.3393 38.0467 0.0909306
10445 1 44.7004 39.4004 1.44612
11641 1 48.7837 38.0488 0.0900373
11645 1 50.1449 39.4026 1.44514
12841 1 54.2268 38.0495 0.0856127
12845 1 55.587 39.4013 1.44217
14041 1 59.6983 38.0256 0.101266
14045 1 60.986 39.453 1.48511
13926 1 63.8027 37.5222 1.00245
15521 1 69.2611 37.8992 1.22382
16721 1 74.7542 37.9198 1.22443
17921 1 80.1962 37.9216 1.21988
19121 1 85.6406 37.9237 1.21895
20321 1 91.085 37.9257 1.21799
21521 1 96.5293 37.9278 1.21703
22721 1 101.974 37.9298 1.21607
23921 1 107.418 37.9318 1.21511
25121 1 112.862 37.9339 1.21416
26321 1 118.308 37.9345 1.21313
27521 1 123.741 37.9502 1.19483
28721 1 129.276 37.3692 1.21919
844 1 2.57919 40.8086 0.0880907
2044 1 7.9472 40.7387 0.100508
3244 1 13.3953 40.7417 0.0961856
4444 1 18.8396 40.7437 0.095256
5644 1 24.284 40.7457 0.0942937
6844 1 29.7284 40.7477 0.0933332
8044 1 35.1728 40.7498 0.0923727
9244 1 40.6172 40.7518 0.0914122
10444 1 46.0615 40.7539 0.0904564
11644 1 51.5059 40.7558 0.0891211
12844 1 56.96 40.7404 0.0870407
14046 1 63.8832 41.9142 1.20019
15516 1 65.2271 39.8114 1.10073
15520 1 69.3523 41.7089 0.642215
16716 1 70.6593 39.7875 0.954058
16720 1 74.7501 41.7088 0.678235
17916 1 76.1144 39.8152 0.94982
17920 1 80.1962 41.7102 0.67757
19116 1 81.5589 39.8161 0.948461
19120 1 85.6406 41.7123 0.676652
20316 1 87.0033 39.8181 0.947507
20320 1 91.085 41.7143 0.675691
21516 1 92.4477 39.8202 0.946547
21520 1 96.5293 41.7164 0.674732
22716 1 97.8921 39.8222 0.945588
22720 1 101.974 41.7184 0.673772
23916 1 103.336 39.8243 0.944629
23920 1 107.418 41.7204 0.672813
25116 1 108.781 39.8263 0.943672
25120 1 112.862 41.7225 0.671845
26316 1 114.225 39.8284 0.942665
26320 1 118.307 41.7243 0.671296
27516 1 119.668 39.8298 0.94315
27520 1 123.734 41.6977 0.668532
28716 1 125.131 39.8162 0.864198
28720 1 129.323 41.8005 0.974574
961 1 -0.220911 43.5997 0.155544
846 1 3.91263 42.1229 1.47315
2161 1 5.2397 43.4597 0.0826802
2046 1 9.31021 42.094 1.4521
3361 1 10.6729 43.4469 0.0971722
3246 1 14.7564 42.0954 1.45144
4561 1 16.1174 43.4488 0.0957248
4446 1 20.2007 42.0974 1.45045
5761 1 21.5618 43.4508 0.0947747
5646 1 25.6451 42.0994 1.44949
6961 1 27.0062 43.4529 0.0938135
6846 1 31.0895 42.1015 1.44853
8161 1 32.4506 43.4549 0.0928529
8046 1 36.5339 42.1035 1.44757
9361 1 37.895 43.4569 0.0918925
9246 1 41.9783 42.1056 1.4466
10561 1 43.3393 43.459 0.0909313
10446 1 47.4226 42.1076 1.44566
11761 1 48.7837 43.461 0.0899774
11646 1 52.8669 42.1092 1.4446
12961 1 54.229 43.4604 0.0875017
12846 1 58.2937 42.0949 1.46804
14161 1 59.6297 43.4405 0.105282
14606 1 66.5258 43.8425 2.27819
15563 1 65.2208 43.647 0.250482
15806 1 72.0355 43.8757 2.306
16763 1 70.681 43.6214 0.405098
17963 1 76.1144 43.6023 0.40669
17006 1 77.4741 43.8741 2.30454
19163 1 81.5589 43.6047 0.406172
18206 1 82.9184 43.8762 2.30404
19406 1 88.3628 43.8782 2.30308
20363 1 87.0033 43.6067 0.405205
20606 1 93.8072 43.8802 2.30212
21563 1 92.4477 43.6088 0.404246
22763 1 97.8921 43.6108 0.403286
21806 1 99.2515 43.8823 2.30116
23963 1 103.336 43.6129 0.402327
23006 1 104.696 43.8843 2.3002
25163 1 108.781 43.6149 0.401368
24206 1 110.14 43.8864 2.29924
25406 1 115.585 43.8885 2.29826
26363 1 114.225 43.6169 0.400408
27563 1 119.67 43.6186 0.402443
26606 1 121.035 43.8821 2.2984
28763 1 125.072 43.5929 0.407397
27806 1 126.426 43.9544 2.27206
965 1 1.26138 44.8544 1.49211
2165 1 6.58577 44.8096 1.45564
2164 1 7.95224 46.1554 0.0993216
3364 1 13.3953 46.1538 0.0962891
3365 1 12.034 44.8006 1.45219
4564 1 18.8396 46.1559 0.0952558
4565 1 17.4785 44.8025 1.45093
5765 1 22.9229 44.8046 1.44997
5764 1 24.284 46.158 0.0942937
6965 1 28.3673 44.8066 1.44901
6964 1 29.7284 46.16 0.0933332
8164 1 35.1728 46.1621 0.0923727
8165 1 33.8117 44.8086 1.44805
9364 1 40.6172 46.1641 0.0914122
9365 1 39.2561 44.8107 1.44709
10565 1 44.7004 44.8127 1.44612
10564 1 46.0615 46.1661 0.0904554
11765 1 50.1448 44.8147 1.44525
11764 1 51.5057 46.1681 0.0894258
12964 1 56.9604 46.173 0.0847852
12965 1 55.5885 44.8207 1.43598
14165 1 61.0407 44.6732 1.50794
14605 1 67.8547 45.7952 2.05124
15562 1 69.2961 45.5148 0.194456
15805 1 73.3997 45.7666 2.03631
16762 1 74.7528 45.4966 0.133944
17005 1 78.8366 45.7687 2.03353
17962 1 80.1962 45.4988 0.135356
18205 1 84.2811 45.7706 2.03259
19162 1 85.6406 45.5009 0.134347
19405 1 89.7255 45.7727 2.03163
20362 1 91.085 45.5029 0.13339
20605 1 95.1699 45.7747 2.03067
21562 1 96.5293 45.5049 0.13243
21805 1 100.614 45.7767 2.02971
22762 1 101.974 45.507 0.131471
23005 1 106.059 45.7788 2.02875
23962 1 107.418 45.509 0.130512
24205 1 111.503 45.7808 2.02779
25162 1 112.862 45.5111 0.129555
25405 1 116.948 45.7827 2.0268
26362 1 118.307 45.5123 0.128441
26605 1 122.386 45.7833 2.01306
27562 1 123.764 45.5298 0.124641
27805 1 127.958 45.711 1.83361
966 1 3.87709 47.5147 1.43015
2281 1 5.23227 48.8682 0.0883396
2166 1 9.31196 47.5078 1.45526
3481 1 10.6739 48.8585 0.0973843
3366 1 14.7564 47.5076 1.45137
4681 1 16.1174 48.8611 0.0957191
4566 1 20.2007 47.5097 1.45045
5881 1 21.5618 48.8631 0.0947747
5766 1 25.6451 47.5117 1.44949
7081 1 27.0062 48.8651 0.0938134
6966 1 31.0895 47.5138 1.44853
8281 1 32.4506 48.8672 0.0928529
8166 1 36.5339 47.5158 1.44757
9481 1 37.895 48.8692 0.0918924
9366 1 41.9783 47.5178 1.4466
10681 1 43.3393 48.8713 0.0909331
10566 1 47.4227 47.5199 1.44566
11881 1 48.7837 48.8733 0.0899436
11766 1 52.8671 47.5227 1.44326
13081 1 54.2317 48.8761 0.0902586
12966 1 58.3379 47.5096 1.44232
14166 1 63.3356 47.0359 1.62753
14602 1 66.5063 47.7432 1.79108
15802 1 72.0336 47.6574 1.77382
17002 1 77.4738 47.6629 1.76298
18202 1 82.9184 47.6647 1.76173
19402 1 88.3628 47.6668 1.76077
20602 1 93.8072 47.6688 1.75981
21802 1 99.2515 47.6709 1.75885
23002 1 104.696 47.6729 1.7579
24202 1 110.14 47.675 1.75694
25402 1 115.585 47.6768 1.75604
26602 1 121.02 47.6762 1.75131
27802 1 126.612 47.6672 1.73403
1081 1 130.569 48.4106 0.602693
1085 1 1.08541 50.2156 1.49339
1084 1 2.41296 51.5681 0.0640768
2285 1 6.59571 50.2128 1.44992
2284 1 7.95822 51.5628 0.0959382
3484 1 13.3952 51.5663 0.096104
3485 1 12.0343 50.2131 1.45216
4684 1 18.8396 51.5682 0.0952561
4685 1 17.4785 50.2148 1.45092
5885 1 22.9229 50.2168 1.44997
5884 1 24.284 51.5703 0.0942938
7085 1 28.3673 50.2189 1.44901
7084 1 29.7284 51.5723 0.0933332
8284 1 35.1728 51.5743 0.0923726
8285 1 33.8117 50.2209 1.44805
9484 1 40.6172 51.5764 0.091412
9485 1 39.2561 50.223 1.44709
10685 1 44.7004 50.225 1.44613
10684 1 46.0615 51.5784 0.0904498
11885 1 50.1448 50.2271 1.4451
11884 1 51.5063 51.5804 0.0896338
13084 1 56.9444 51.5917 0.0974061
13085 1 55.5957 50.2232 1.45023
14284 1 62.5158 51.6958 0.266312
14285 1 60.9868 50.2877 1.409
15590 1 66.7016 51.4508 1.15302
14693 1 67.9843 49.5336 1.47276
16790 1 72.0256 51.4537 1.21086
15893 1 73.3879 49.5579 1.49339
17093 1 78.8367 49.5571 1.49123
17990 1 77.4739 51.4512 1.22008
18293 1 84.2811 49.5592 1.49029
19190 1 82.9184 51.4533 1.21943
20390 1 88.3628 51.4554 1.21847
19493 1 89.7255 49.5612 1.48933
21590 1 93.8072 51.4574 1.21751
20693 1 95.1699 49.5633 1.48837
21893 1 100.614 49.5653 1.48741
22790 1 99.2515 51.4595 1.21655
23093 1 106.059 49.5674 1.48645
23990 1 104.696 51.4615 1.21559
25190 1 110.14 51.4636 1.21463
24293 1 111.503 49.5694 1.48549
26390 1 115.585 51.4655 1.21368
25493 1 116.947 49.5714 1.48471
26693 1 122.375 49.5742 1.48455
27590 1 121.028 51.4765 1.21454
27893 1 128.102 49.5247 1.54952
28790 1 126.482 51.331 1.28892
1086 1 3.85619 52.8821 1.40279
2286 1 9.31291 52.9196 1.4539
3486 1 14.7563 52.9199 1.45137
4686 1 20.2007 52.922 1.45045
5886 1 25.6451 52.924 1.44949
7086 1 31.0895 52.926 1.44853
8286 1 36.5339 52.9281 1.44757
9486 1 41.9783 52.9301 1.44661
10686 1 47.4226 52.9322 1.44564
11886 1 52.8671 52.9338 1.44544
13086 1 58.3238 52.9474 1.43372
14286 1 64.0417 53.3241 1.45723
15589 1 67.9832 53.3859 0.990913
16789 1 73.3937 53.3441 0.945803
17989 1 78.8368 53.3456 0.949012
19189 1 84.2811 53.3478 0.947984
20389 1 89.7255 53.3498 0.947027
21589 1 95.1699 53.3519 0.946068
22789 1 100.614 53.3539 0.945108
23989 1 106.059 53.356 0.944149
25189 1 111.503 53.358 0.943183
26389 1 116.947 53.3601 0.942323
27589 1 122.402 53.3667 0.941374
28789 1 127.608 53.3833 1.17031
3 1 2.54154 0.13978 2.75027
7 1 3.87709 1.51028 4.14165
1203 1 7.95224 0.151032 2.81083
1207 1 9.31196 1.50348 4.16677
2403 1 13.3953 0.149396 2.8078
2407 1 14.7564 1.50325 4.16288
3603 1 18.8396 0.151576 2.80676
3607 1 20.2007 1.5053 4.16196
4803 1 24.284 0.153614 2.8058
4807 1 25.6451 1.50734 4.16099
6003 1 29.7284 0.155655 2.80484
6007 1 31.0895 1.50939 4.16003
7203 1 35.1728 0.157695 2.80388
7207 1 36.5339 1.51143 4.15907
8403 1 40.6172 0.159735 2.80292
8407 1 41.9783 1.51347 4.15811
9603 1 46.0615 0.161781 2.80196
9607 1 47.4227 1.5155 4.15716
10803 1 51.5057 0.163742 2.80093
10807 1 52.8671 1.51834 4.15477
12003 1 56.9604 0.168629 2.79629
12007 1 58.3379 1.50522 4.15382
13207 1 63.3356 1.03154 4.33904
14803 1 64.9612 1.76361 2.62917
14807 1 66.5063 1.7388 4.50258
16003 1 70.6803 1.37731 2.58822
16007 1 72.0336 1.65298 4.48533
17203 1 76.1144 1.38744 2.57646
17207 1 77.4738 1.65849 4.47449
18403 1 81.5589 1.38889 2.57537
18407 1 82.9184 1.66037 4.47324
19603 1 87.0033 1.39095 2.57441
19607 1 88.3628 1.66242 4.47228
20803 1 92.4477 1.39299 2.57345
20807 1 93.8072 1.66447 4.47132
22003 1 97.8921 1.39504 2.57249