ITEM: TIMESTEP
0
ITEM: NUMBER OF ATOMS
38564
ITEM: BOX BOUNDS pp pp pp
-1.0000000000000000e+01 1.3000000000000000e+02
0.0000000000000000e+00 2.0000000000000000e+01
0.0000000000000000e+00 4.0000000000000000e+00
ITEM: ATOMS id type x y z
1 1 0 0 0
2 1 0 0.5 0.5
3 1 0.5 0 0.5
4 1 0.5 0.5 0
5 1 0 0 1
6 1 0 0.5 1.5
7 1 0.5 0 1.5
8 1 0.5 0.5 1
9 1 0 0 2
10 1 0 0.5 2.5
11 1 0.5 0 2.5
12 1 0.5 0.5 2
13 1 0 0 3
14 1 0 0.5 3.5
15 1 0.5 0 3.5
16 1 0.5 0.5 3
17 1 1 0 0
18 1 1 0.5 0.5
19 1 1.5 0 0.5
20 1 1.5 0.5 0
21 1 1 0 1
22 1 1 0.5 1.5
23 1 1.5 0 1.5
24 1 1.5 0.5 1
25 1 1 0 2
26 1 1 0.5 2.5
27 1 1.5 0 2.5
28 1 1.5 0.5 2
29 1 1 0 3
30 1 1 0.5 3.5
31 1 1.5 0 3.5
32 1 1.5 0.5 3
33 1 2 0 0
34 1 2 0.5 0.5
35 1 2.5 0 0.5
36 1 2.5 0.5 0
37 1 2 0 1
38 1 2 0.5 1.5
39 1 2.5 0 1.5
40 1 2.5 0.5 1
41 1 2 0 2
42 1 2 0.5 2.5
43 1 2.5 0 2.5
44 1 2.5 0.5 2
45 1 2 0 3
46 1 2 0.5 3.5
47 1 2.5 0 3.5
48 1 2.5 0.5 3
49 1 3 0 0
50 1 3 0.5 0.5
51 1 3.5 0 0.5
52 1 3.5 0.5 0
53 1 3 0 1
54 1 3 0.5 1.5
55 1 3.5 0 1.5
56 1 3.5 0.5 1
57 1 3 0 2
58 1 3 0.5 2.5
59 1 3.5 0 2.5
60 1 3.5 0.5 2
61 1 3 0 3
62 1 3 0.5 3.5
63 1 3.5 0 3.5
64 1 3.5 0.5 3
65 1 4 0 0
66 1 4 0.5 0.5
67 1 4.5 0 0.5
68 1 4.5 0.5 0
69 1 4 0 1
70 1 4 0.5 1.5
71 1 4.5 0 1.5
72 1 4.5 0.5 1
73 1 4 0 2
74 1 4 0.5 2.5
75 1 4.5 0 2.5
76 1 4.5 0.5 2
77 1 4 0 3
78 1 4 0.5 3.5
79 1 4.5 0 3.5
80 1 4.5 0.5 3
81 1 5 0 0
82 1 5 0.5 0.5
83 1 5.5 0 0.5
84 1 5.5 0.5 0
85 1 5 0 1
86 1 5 0.5 1.5
87 1 5.5 0 1.5
88 1 5.5 0.5 1
89 1 5 0 2
90 1 5 0.5 2.5
91 1 5.5 0 2.5
92 1 5.5 0.5 2
93 1 5 0 3
94 1 5 0.5 3.5
95 1 5.5 0 3.5
96 1 5.5 0.5 3
97 1 6 0 0
98 1 6 0.5 0.5
99 1 6.5 0 0.5
100 1 6.5 0.5 0
101 1 6 0 1
102 1 6 0.5 1.5
103 1 6.5 0 1.5
104 1 6.5 0.5 1
105 1 6 0 2
106 1 6 0.5 2.5
107 1 6.5 0 2.5
108 1 6.5 0.5 2
109 1 6 0 3
110 1 6 0.5 3.5
111 1 6.5 0 3.5
112 1 6.5 0.5 3
113 1 7 0 0
114 1 7 0.5 0.5
115 1 7.5 0 0.5
116 1 7.5 0.5 0
117 1 7 0 1
118 1 7 0.5 1.5
119 1 7.5 0 1.5
120 1 7.5 0.5 1
121 1 7 0 2
122 1 7 0.5 2.5
123 1 7.5 0 2.5
124 1 7.5 0.5 2
125 1 7 0 3
126 1 7 0.5 3.5
127 1 7.5 0 3.5
128 1 7.5 0.5 3
129 1 8 0 0
130 1 8 0.5 0.5
131 1 8.5 0 0.5
132 1 8.5 0.5 0
133 1 8 0 1
134 1 8 0.5 1.5
135 1 8.5 0 1.5
136 1 8.5 0.5 1
137 1 8 0 2
138 1 8 0.5 2.5
139 1 8.5 0 2.5
140 1 8.5 0.5 2
141 1 8 0 3
142 1 8 0.5 3.5
143 1 8.5 0 3.5
144 1 8.5 0.5 3
145 1 9 0 0
146 1 9 0.5 0.5
147 1 9.5 0 0.5
148 1 9.5 0.5 0
149 1 9 0 1
150 1 9 0.5 1.5
151 1 9.5 0 1.5
152 1 9.5 0.5 1
153 1 9 0 2
154 1 9 0.5 2.5
155 1 9.5 0 2.5
156 1 9.5 0.5 2
157 1 9 0 3
158 1 9 0.5 3.5
159 1 9.5 0 3.5
160 1 9.5 0.5 3
161 1 10 0 0
162 1 10 0.5 0.5
163 1 10.5 0 0.5
164 1 10.5 0.5 0
165 1 10 0 1
166 1 10 0.5 1.5
167 1 10.5 0 1.5
168 1 10.5 0.5 1
169 1 10 0 2
170 1 10 0.5 2.5
171 1 10.5 0 2.5
172 1 10.5 0.5 2
173 1 10 0 3
174 1 10 0.5 3.5
175 1 10.5 0 3.5
176 1 10.5 0.5 3
177 1 11 0 0
178 1 11 0.5 0.5
179 1 11.5 0 0.5
180 1 11.5 0.5 0
181 1 11 0 1
182 1 11 0.5 1.5
183 1 11.5 0 1.5
184 1 11.5 0.5 1
185 1 11 0 2
186 1 11 0.5 2.5
187 1 11.5 0 2.5
188 1 11.5 0.5 2
189 1 11 0 3
190 1 11 0.5 3.5
191 1 11.5 0 3.5
192 1 11.5 0.5 3
193 1 12 0 0
194 1 12 0.5 0.5
195 1 12.5 0 0.5
196 1 12.5 0.5 0
197 1 12 0 1
198 1 12 0.5 1.5
199 1 12.5 0 1.5
200 1 12.5 0.5 1
201 1 12 0 2
202 1 12 0.5 2.5
203 1 12.5 0 2.5
204 1 12.5 0.5 2
205 1 12 0 3
206 1 12 0.5 3.5
207 1 12.5 0 3.5
208 1 12.5 0.5 3
209 1 13 0 0
210 1 13 0.5 0.5
211 1 13.5 0 0.5
212 1 13.5 0.5 0
213 1 13 0 1
214 1 13 0.5 1.5
215 1 13.5 0 1.5
216 1 13.5 0.5 1
217 1 13 0 2
218 1 13 0.5 2.5
219 1 13.5 0 2.5
220 1 13.5 0.5 2
221 1 13 0 3
222 1 13 0.5 3.5
223 1 13.5 0 3.5
224 1 13.5 0.5 3
225 1 14 0 0
226 1 14 0.5 0.5
227 1 14.5 0 0.5
228 1 14.5 0.5 0
229 1 14 0 1
230 1 14 0.5 1.5
231 1 14.5 0 1.5
232 1 14.5 0.5 1
233 1 14 0 2
234 1 14 0.5 2.5
235 1 14.5 0 2.5
236 1 14.5 0.5 2
237 1 14 0 3
238 1 14 0.5 3.5
239 1 14.5 0 3.5
240 1 14.5 0.5 3
241 1 15 0 0
242 1 15 0.5 0.5
243 1 15.5 0 0.5
244 1 15.5 0.5 0
245 1 15 0 1
246 1 15 0.5 1.5
247 1 15.5 0 1.5
248 1 15.5 0.5 1
249 1 15 0 2
250 1 15 0.5 2.5
251 1 15.5 0 2.5
252 1 15.5 0.5 2
253 1 15 0 3
254 1 15 0.5 3.5
255 1 15.5 0 3.5
256 1 15.5 0.5 3
257 1 16 0 0
258 1 16 0.5 0.5
259 1 16.5 0 0.5
260 1 16.5 0.5 0
261 1 16 0 1
262 1 16 0.5 1.5
263 1 16.5 0 1.5
264 1 16.5 0.5 1
265 1 16 0 2
266 1 16 0.5 2.5
267 1 16.5 0 2.5
268 1 16.5 0.5 2
269 1 16 0 3
270 1 16 0.5 3.5
271 1 16.5 0 3.5
272 1 16.5 0.5 3
273 1 17 0 0
274 1 17 0.5 0.5
275 1 17.5 0 0.5
276 1 17.5 0.5 0
277 1 17 0 1
278 1 17 0.5 1.5
279 1 17.5 0 1.5
280 1 17.5 0.5 1
281 1 17 0 2
282 1 17 0.5 2.5
283 1 17.5 0 2.5
284 1 17.5 0.5 2
285 1 17 0 3
286 1 17 0.5 3.5
287 1 17.5 0 3.5
288 1 17.5 0.5 3
289 1 18 0 0
290 1 18 0.5 0.5
291 1 18.5 0 0.5
292 1 18.5 0.5 0
293 1 18 0 1
294 1 18 0.5 1.5
295 1 18.5 0 1.5
296 1 18.5 0.5 1
297 1 18 0 2
298 1 18 0.5 2.5
299 1 18.5 0 2.5
300 1 18.5 0.5 2
301 1 18 0 3
302 1 18 0.5 3.5
303 1 18.5 0 3.5
304 1 18.5 0.5 3
305 1 19 0 0
306 1 19 0.5 0.5
307 1 19.5 0 0.5
308 1 19.5 0.5 0
309 1 19 0 1
310 1 19 0.5 1.5
311 1 19.5 0 1.5
312 1 19.5 0.5 1
313 1 19 0 2
314 1 19 0.5 2.5
315 1 19.5 0 2.5
316 1 19.5 0.5 2
317 1 19 0 3
318 1 19 0.5 3.5
319 1 19.5 0 3.5
320 1 19.5 0.5 3
321 1 20 0 0
322 1 20 0.5 0.5
323 1 20.5 0 0.5
324 1 20.5 0.5 0
325 1 20 0 1
326 1 20 0.5 1.5
327 1 20.5 0 1.5
328 1 20.5 0.5 1
329 1 20 0 2
330 1 20 0.5 2.5
331 1 20.5 0 2.5
332 1 20.5 0.5 2
333 1 20 0 3
334 1 20 0.5 3.5
335 1 20.5 0 3.5
336 1 20.5 0.5 3
337 1 21 0 0
338 1 21 0.5 0.5
339 1 21.5 0 0.5
340 1 21.5 0.5 0
341 1 21 0 1
342 1 21 0.5 1.5
343 1 21.5 0 1.5
344 1 21.5 0.5 1
345 1 21 0 2
346 1 21 0.5 2.5
347 1 21.5 0 2.5
348 1 21.5 0.5 2
349 1 21 0 3
350 1 21 0.5 3.5
351 1 21.5 0 3.5
352 1 21.5 0.5 3
353 1 22 0 0
354 1 22 0.5 0.5
355 1 22.5 0 0.5
356 1 22.5 0.5 0
357 1 22 0 1
358 1 22 0.5 1.5
359 1 22.5 0 1.5
360 1 22.5 0.5 1
361 1 22 0 2
362 1 22 0.5 2.5
363 1 22.5 0 2.5
364 1 22.5 0.5 2
365 1 22 0 3
366 1 22 0.5 3.5
367 1 22.5 0 3.5
368 1 22.5 0.5 3
369 1 23 0 0
370 1 23 0.5 0.5
371 1 23.5 0 0.5
372 1 23.5 0.5 0
373 1 23 0 1
374 1 23 0.5 1.5
375 1 23.5 0 1.5
376 1 23.5 0.5 1
377 1 23 0 2
378 1 23 0.5 2.5
379 1 23.5 0 2.5
380 1 23.5 0.5 2
381 1 23 0 3
382 1 23 0.5 3.5
383 1 23.5 0 3.5
384 1 23.5 0.5 3
385 1 24 0 0
386 1 24 0.5 0.5
387 1 24.5 0 0.5
388 1 24.5 0.5 0
389 1 24 0 1
390 1 24 0.5 1.5
391 1 24.5 0 1.5
392 1 24.5 0.5 1
393 1 24 0 2
394 1 24 0.5 2.5
395 1 24.5 0 2.5
396 1 24.5 0.5 2
397 1 24 0 3
398 1 24 0.5 3.5
399 1 24.5 0 3.5
400 1 24.5 0.5 3
401 1 25 0 0
402 1 25 0.5 0.5
403 1 25.5 0 0.5
404 1 25.5 0.5 0
405 1 25 0 1
406 1 25 0.5 1.5
407 1 25.5 0 1.5
408 1 25.5 0.5 1
409 1 25 0 2
410 1 25 0.5 2.5
411 1 25.5 0 2.5
412 1 25.5 0.5 2
413 1 25 0 3
414 1 25 0.5 3.5
415 1 25.5 0 3.5
416 1 25.5 0.5 3
417 1 26 0 0
418 1 26 0.5 0.5
419 1 26.5 0 0.5
420 1 26.5 0.5 0
421 1 26 0 1
422 1 26 0.5 1.5
423 1 26.5 0 1.5
424 1 26.5 0.5 1
425 1 26 0 2
426 1 26 0.5 2.5
427 1 26.5 0 2.5
428 1 26.5 0.5 2
429 1 26 0 3
430 1 26 0.5 3.5
431 1 26.5 0 3.5
432 1 26.5 0.5 3
433 1 27 0 0
434 1 27 0.5 0.5
435 1 27.5 0 0.5
436 1 27.5 0.5 0
437 1 27 0 1
438 1 27 0.5 1.5
439 1 27.5 0 1.5
440 1 27.5 0.5 1
441 1 27 0 2
442 1 27 0.5 2.5
443 1 27.5 0 2.5
444 1 27.5 0.5 2
445 1 27 0 3
446 1 27 0.5 3.5
447 1 27.5 0 3.5
448 1 27.5 0.5 3
449 1 28 0 0
450 1 28 0.5 0.5
451 1 28.5 0 0.5
452 1 28.5 0.5 0
453 1 28 0 1
454 1 28 0.5 1.5
455 1 28.5 0 1.5
456 1 28.5 0.5 1
457 1 28 0 2
458 1 28 0.5 2.5
459 1 28.5 0 2.5
460 1 28.5 0.5 2
461 1 28 0 3
462 1 28 0.5 3.5
463 1 28.5 0 3.5
464 1 28.5 0.5 3
465 1 29 0 0
466 1 29 0.5 0.5
467 1 29.5 0 0.5
468 1 29.5 0.5 0
469 1 29 0 1
470 1 29 0.5 1.5
471 1 29.5 0 1.5
472 1 29.5 0.5 1
473 1 29 0 2
474 1 29 0.5 2.5
475 1 29.5 0 2.5
476 1 29.5 0.5 2
477 1 29 0 3
478 1 29 0.5 3.5
479 1 29.5 0 3.5
480 1 29.5 0.5 3
481 1 30 0 0
482 1 30 0.5 0.5
483 1 30.5 0 0.5
484 1 30.5 0.5 0
485 1 30 0 1
486 1 30 0.5 1.5
487 1 30.5 0 1.5
488 1 30.5 0.5 1
489 1 30 0 2
490 1 30 0.5 2.5
491 1 30.5 0 2.5
492 1 30.5 0.5 2
493 1 30 0 3
494 1 30 0.5 3.5
495 1 30.5 0 3.5
496 1 30.5 0.5 3
497 1 31 0 0
498 1 31 0.5 0.5
499 1 31.5 0 0.5
500 1 31.5 0.5 0
501 1 31 0 1
502 1 31 0.5 1.5
503 1 31.5 0 1.5
504 1 31.5 0.5 1
505 1 31 0 2
506 1 31 0.5 2.5
507 1 31.5 0 2.5
508 1 31.5 0.5 2
509 1 31 0 3
510 1 31 0.5 3.5
511 1 31.5 0 3.5
512 1 31.5 0.5 3
513 1 32 0 0
514 1 32 0.5 0.5
515 1 32.5 0 0.5
516 1 32.5 0.5 0
517 1 32 0 1
518 1 32 0.5 1.5
519 1 32.5 0 1.5
520 1 32.5 0.5 1
521 1 32 0 2
522 1 32 0.5 2.5
523 1 32.5 0 2.5
524 1 32.5 0.5 2
525 1 32 0 3
526 1 32 0.5 3.5
527 1 32.5 0 3.5
528 1 32.5 0.5 3
529 1 33 0 0
530 1 33 0.5 0.5
531 1 33.5 0 0.5
532 1 33.5 0.5 0
533 1 33 0 1
534 1 33 0.5 1.5
535 1 33.5 0 1.5
536 1 33.5 0.5 1
537 1 33 0 2
538 1 33 0.5 2.5
539 1 33.5 0 2.5
540 1 33.5 0.5 2
541 1 33 0 3
542 1 33 0.5 3.5
543 1 33.5 0 3.5
544 1 33.5 0.5 3
545 1 34 0 0
546 1 34 0.5 0.5
547 1 34.5 0 0.5
548 1 34.5 0.5 0
549 1 34 0 1
550 1 34 0.5 1.5
551 1 34.5 0 1.5
552 1 34.5 0.5 1
553 1 34 0 2
554 1 34 0.5 2.5
555 1 34.5 0 2.5
556 1 34.5 0.5 2
557 1 34 0 3
558 1 34 0.5 3.5
559 1 34.5 0 3.5
560 1 34.5 0.5 3
561 1 35 0 0
562 1 35 0.5 0.5
563 1 35.5 0 0.5
564 1 35.5 0.5 0
565 1 35 0 1
566 1 35 0.5 1.5
567 1 35.5 0 1.5
568 1 35.5 0.5 1
569 1 35 0 2
570 1 35 0.5 2.5
571 1 35.5 0 2.5
572 1 35.5 0.5 2
573 1 35 0 3
574 1 35 0.5 3.5
575 1 35.5 0 3.5
576 1 35.5 0.5 3
577 1 36 0 0
578 1 36 0.5 0.5
579 1 36.5 0 0.5
580 1 36.5 0.5 0
581 1 36 0 1
582 1 36 0.5 1.5
583 1 36.5 0 1.5
584 1 36.5 0.5 1
585 1 36 0 2
586 1 36 0.5 2.5
587 1 36.5 0 2.5
588 1 36.5 0.5 2
589 1 36 0 3
590 1 36 0.5 3.5
591 1 36.5 0 3.5
592 1 36.5 0.5 3
593 1 37 0 0
594 1 37 0.5 0.5
595 1 37.5 0 0.5
596 1 37.5 0.5 0
597 1 37 0 1
598 1 37 0.5 1.5
599 1 37.5 0 1.5
600 1 37.5 0.5 1
601 1 37 0 2
602 1 37 0.5 2.5
603 1 37.5 0 2.5
604 1 37.5 0.5 2
605 1 37 0 3
606 1 37 0.5 3.5
607 1 37.5 0 3.5
608 1 37.5 0.5 3
609 1 38 0 0
610 1 38 0.5 0.5
611 1 38.5 0 0.5
612 1 38.5 0.5 0
613 1 38 0 1
614 1 38 0.5 1.5
615 1 38.5 0 1.5
616 1 38.5 0.5 1
617 1 38 0 2
618 1 38 0.5 2.5
619 1 38.5 0 2.5
620 1 38.5 0.5 2
621 1 38 0 3
622 1 38 0.5 3.5
623 1 38.5 0 3.5
624 1 38.5 0.5 3
625 1 39 0 0
626 1 39 0.5 0.5
627 1 39.5 0 0.5
628 1 39.5 0.5 0
629 1 39 0 1
630 1 39 0.5 1.5
631 1 39.5 0 1.5
632 1 39.5 0.5 1
633 1 39 0 2
634 1 39 0.5 2.5
635 1 39.5 0 2.5
636 1 39.5 0.5 2
637 1 39 0 3
638 1 39 0.5 3.5
639 1 39.5 0 3.5
640 1 39.5 0.5 3
641 1 40 0 0
642 1 40 0.5 0.5
643 1 40.5 0 0.5
644 1 40.5 0.5 0
645 1 40 0 1
646 1 40 0.5 1.5
647 1 40.5 0 1.5
648 1 40.5 0.5 1
649 1 40 0 2
650 1 40 0.5 2.5
651 1 40.5 0 2.5
652 1 40.5 0.5 2
653 1 40 0 3
654 1 40 0.5 3.5
655 1 40.5 0 3.5
656 1 40.5 0.5 3
657 1 41 0 0
658 1 41 0.5 0.5
659 1 41.5 0 0.5
660 1 41.5 0.5 0
661 1 41 0 1
662 1 41 0.5 1.5
663 1 41.5 0 1.5
664 1 41.5 0.5 1
665 1 41 0 2
666 1 41 0.5 2.5
667 1 41.5 0 2.5
668 1 41.5 0.5 2
669 1 41 0 3
670 1 41 0.5 3.5
671 1 41.5 0 3.5
672 1 41.5 0.5 3
673 1 42 0 0
674 1 42 0.5 0.5
675 1 42.5 0 0.5
676 1 42.5 0.5 0
677 1 42 0 1
678 1 42 0.5 1.5
679 1 42.5 0 1.5
680 1 42.5 0.5 1
681 1 42 0 2
682 1 42 0.5 2.5
683 1 42.5 0 2.5
684 1 42.5 0.5 2
685 1 42 0 3
686 1 42 0.5 3.5
687 1 42.5 0 3.5
688 1 42.5 0.5 3
689 1 43 0 0
690 1 43 0.5 0.5
691 1 43.5 0 0.5
692 1 43.5 0.5 0
693 1 43 0 1
694 1 43 0.5 1.5
695 1 43.5 0 1.5
696 1 43.5 0.5 1
697 1 43 0 2
698 1 43 0.5 2.5
699 1 43.5 0 2.5
700 1 43.5 0.5 2
701 1 43 0 3
702 1 43 0.5 3.5
703 1 43.5 0 3.5
704 1 43.5 0.5 3
705 1 44 0 0
706 1 44 0.5 0.5
707 1 44.5 0 0.5
708 1 44.5 0.5 0
709 1 44 0 1
710 1 44 0.5 1.5
711 1 44.5 0 1.5
712 1 44.5 0.5 1
713 1 44 0 2
714 1 44 0.5 2.5
715 1 44.5 0 2.5
716 1 44.5 0.5 2
717 1 44 0 3
718 1 44 0.5 3.5
719 1 44.5 0 3.5
720 1 44.5 0.5 3
721 1 45 0 0
722 1 45 0.5 0.5
723 1 45.5 0 0.5
724 1 45.5 0.5 0
725 1 45 0 1
726 1 45 0.5 1.5
727 1 45.5 0 1.5
728 1 45.5 0.5 1
729 1 45 0 2
730 1 45 0.5 2.5
731 1 45.5 0 2.5
732 1 45.5 0.5 2
733 1 45 0 3
734 1 45 0.5 3.5
735 1 45.5 0 3.5
736 1 45.5 0.5 3
737 1 46 0 0
738 1 46 0.5 0.5
739 1 46.5 0 0.5
740 1 46.5 0.5 0
741 1 46 0 1
742 1 46 0.5 1.5
743 1 46.5 0 1.5
744 1 46.5 0.5 1
745 1 46 0 2
746 1 46 0.5 2.5
747 1 46.5 0 2.5
748 1 46.5 0.5 2
749 1 46 0 3
750 1 46 0.5 3.5
751 1 46.5 0 3.5
752 1 46.5 0.5 3
753 1 47 0 0
754 1 47 0.5 0.5
755 1 47.5 0 0.5
756 1 47.5 0.5 0
757 1 47 0 1
758 1 47 0.5 1.5
759 1 47.5 0 1.5
760 1 47.5 0.5 1
761 1 47 0 2
762 1 47 0.5 2.5
763 1 47.5 0 2.5
764 1 47.5 0.5 2
765 1 47 0 3
766 1 47 0.5 3.5
767 1 47.5 0 3.5
768 1 47.5 0.5 3
769 1 48 0 0
770 1 48 0.5 0.5
771 1 48.5 0 0.5
772 1 48.5 0.5 0
773 1 48 0 1
774 1 48 0.5 1.5
775 1 48.5 0 1.5
776 1 48.5 0.5 1
777 1 48 0 2
778 1 48 0.5 2.5
779 1 48.5 0 2.5
780 1 48.5 0.5 2
781 1 48 0 3
782 1 48 0.5 3.5
783 1 48.5 0 3.5
784 1 48.5 0.5 3
785 1 49 0 0
786 1 49 0.5 0.5
787 1 49.5 0 0.5
788 1 49.5 0.5 0
789 1 49 0 1
790 1 49 0.5 1.5
791 1 49.5 0 1.5
792 1 49.5 0.5 1
793 1 49 0 2
794 1 49 0.5 2.5
795 1 49.5 0 2.5
796 1 49.5 0.5 2
797 1 49 0 3
798 1 49 0.5 3.5
799 1 49.5 0 3.5
800 1 49.5 0.5 3
801 1 50 0 0
802 1 50 0.5 0.5
803 1 50.5 0 0.5
804 1 50.5 0.5 0
805 1 50 0 1
806 1 50 0.5 1.5
807 1 50.5 0 1.5
808 1 50.5 0.5 1
809 1 50 0 2
810 1 50 0.5 2.5
811 1 50.5 0 2.5
812 1 50.5 0.5 2
813 1 50 0 3
814 1 50 0.5 3.5
815 1 50.5 0 3.5
816 1 50.5 0.5 3
817 1 51 0 0
818 1 51 0.5 0.5
819 1 51.5 0 0.5
820 1 51.5 0.5 0
821 1 51 0 1
822 1 51 0.5 1.5
823 1 51.5 0 1.5
824 1 51.5 0.5 1
825 1 51 0 2
826 1 51 0.5 2.5
827 1 51.5 0 2.5
828 1 51.5 0.5 2
829 1 51 0 3
830 1 51 0.5 3.5
831 1 51.5 0 3.5
832 1 51.5 0.5 3
833 1 52 0 0
834 1 52 0.5 0.5
835 1 52.5 0 0.5
836 1 52.5 0.5 0
837 1 52 0 1
838 1 52 0.5 1.5
839 1 52.5 0 1.5
840 1 52.5 0.5 1
841 1 52 0 2
842 1 52 0.5 2.5
843 1 52.5 0 2.5
844 1 52.5 0.5 2
845 1 52 0 3
846 1 52 0.5 3.5
847 1 52.5 0 3.5
848 1 52.5 0.5 3
849 1 53 0 0
850 1 53 0.5 0.5
851 1 53.5 0 0.5
852 1 53.5 0.5 0
853 1 53 0 1
854 1 53 0.5 1.5
855 1 53.5 0 1.5
856 1 53.5 0.5 1
857 1 53 0 2
858 1 53 0.5 2.5
859 1 53.5 0 2.5
860 1 53.5 0.5 2
861 1 53 0 3
862 1 53 0.5 3.5
863 1 53.5 0 3.5
864 1 53.5 0.5 3
865 1 54 0 0
866 1 54 0.5 0.5
867 1 54.5 0 0.5
868 1 54.5 0.5 0
869 1 54 0 1
870 1 54 0.5 1.5
871 1 54.5 0 1.5
872 1 54.5 0.5 1
873 1 54 0 2
874 1 54 0.5 2.5
875 1 54.5 0 2.5
876 1 54.5 0.5 2
877 1 54 0 3
878 1 54 0.5 3.5
879 1 54.5 0 3.5
880 1 54.5 0.5 3
881 1 55 0 0
882 1 55 0.5 0.5
883 1 55.5 0 0.5
884 1 55.5 0.5 0
885 1 55 0 1
886 1 55 0.5 1.5
887 1 55.5 0 1.5
888 1 55.5 0.5 1
889 1 55 0 2
890 1 55 0.5 2.5
891 1 55.5 0 2.5
892 1 55.5 0.5 2
893 1 55 0 3
894 1 55 0.5 3.5
895 1 55.5 0 3.5
896 1 55.5 0.5 3
897 1 56 0 0
898 1 56 0.5 0.5
899 1 56.5 0 0.5
900 1 56.5 0.5 0
901 1 56 0 1
902 1 56 0.5 1.5
903 1 56.5 0 1.5
904 1 56.5 0.5 1
905 1 56 0 2
906 1 56 0.5 2.5
907 1 56.5 0 2.5
908 1 56.5 0.5 2
909 1 56 0 3
910 1 56 0.5 3.5
911 1 56.5 0 3.5
912 1 56.5 0.5 3
913 1 57 0 0
914 1 57 0.5 0.5
915 1 57.5 0 0.5
916 1 57.5 0.5 0
917 1 57 0 1
918 1 57 0.5 1.5
919 1 57.5 0 1.5
920 1 57.5 0.5 1
921 1 57 0 2
922 1 57 0.5 2.5
923 1 57.5 0 2.5
924 1 57.5 0.5 2
925 1 57 0 3
926 1 57 0.5 3.5
927 1 57.5 0 3.5
928 1 57.5 0.5 3
929 1 58 0 0
930 1 58 0.5 0.5
931 1 58.5 0 0.5
932 1 58.5 0.5 0
933 1 58 0 1
934 1 58 0.5 1.5
935 1 58.5 0 1.5
936 1 58.5 0.5 1
937 1 58 0 2
938 1 58 0.5 2.5
939 1 58.5 0 2.5
940 1 58.5 0.5 2
941 1 58 0 3
942 1 58 0.5 3.5
943 1 58.5 0 3.5
944 1 58.5 0.5 3
945 1 59 0 0
946 1 59 0.5 0.5
947 1 59.5 0 0.5
948 1 59.5 0.5 0
949 1 59 0 1
950 1 59 0.5 1.5
951 1 59.5 0 1.5
952 1 59.5 0.5 1
953 1 59 0 2
954 1 59 0.5 2.5
955 1 59.5 0 2.5
956 1 59.5 0.5 2
957 1 59 0 3
958 1 59 0.5 3.5
959 1 59.5 0 3.5
960 1 59.5 0.5 3
961 1 60 0 0
962 1 60 0.5 0.5
963 1 60 0 1
964 1 60 0.5 1.5
965 1 60 0 2
966 1 60 0.5 2.5
967 1 60 0 3
968 1 60 0.5 3.5
969 1 0 1 0
970 1 0 1.5 0.5
971 1 0.5 1 0.5
972 1 0.5 1.5 0
973 1 0 1 1
974 1 0 1.5 1.5
975 1 0.5 1 1.5
976 1 0.5 1.5 1
977 1 0 1 2
978 1 0 1.5 2.5
979 1 0.5 1 2.5
980 1 0.5 1.5 2
981 1 0 1 3
982 1 0 1.5 3.5
983 1 0.5 1 3.5
984 1 0.5 1.5 3
985 1 1 1 0
986 1 1 1.5 0.5
987 1 1.5 1 0.5
988 1 1.5 1.5 0
989 1 1 1 1
990 1 1 1.5 1.5
991 1 1.5 1 1.5
992 1 1.5 1.5 1
993 1 1 1 2
994 1 1 1.5 2.5
995 1 1.5 1 2.5
996 1 1.5 1.5 2
997 1 1 1 3
998 1 1 1.5 3.5
999 1 1.5 1 3.5
1000 1 1.5 1.5 3
1001 1 2 1 0
1002 1 2 1.5 0.5
1003 1 2.5 1 0.5
1004 1 2.5 1.5 0
1005 1 2 1 1
1006 1 2 1.5 1.5
1007 1 2.5 1 1.5
1008 1 2.5 1.5 1
1009 1 2 1 2
1010 1 2 1.5 2.5
1011 1 2.5 1 2.5
1012 1 2.5 1.5 2
1013 1 2 1 3
1014 1 2 1.5 3.5
1015 1 2.5 1 3.5
1016 1 2.5 1.5 3
1017 1 3 1 0
1018 1 3 1.5 0.5
1019 1 3.5 1 0.5
1020 1 3.5 1.5 0
1021 1 3 1 1
1022 1 3 1.5 1.5
1023 1 3.5 1 1.5
1024 1 3.5 1.5 1
1025 1 3 1 2
1026 1 3 1.5 2.5
1027 1 3.5 1 2.5
1028 1 3.5 1.5 2
1029 1 3 1 3
1030 1 3 1.5 3.5
1031 1 3.5 1 3.5
1032 1 3.5 1.5 3
1033 1 4 1 0
1034 1 4 1.5 0.5
1035 1 4.5 1 0.5
1036 1 4.5 1.5 0
1037 1 4 1 1
1038 1 4 1.5 1.5
1039 1 4.5 1 1.5
1040 1 4.5 1.5 1
1041 1 4 1 2
1042 1 4 1.5 2.5
1043 1 4.5 1 2.5
1044 1 4.5 1.5 2
1045 1 4 1 3
1046 1 4 1.5 3.5
1047 1 4.5 1 3.5
1048 1 4.5 1.5 3
1049 1 5 1 0
1050 1 5 1.5 0.5
1051 1 5.5 1 0.5
1052 1 5.5 1.5 0
1053 1 5 1 1
1054 1 5 1.5 1.5
1055 1 5.5 1 1.5
1056 1 5.5 1.5 1
1057 1 5 1 2
1058 1 5 1.5 2.5
1059 1 5.5 1 2.5
1060 1 5.5 1.5 2
1061 1 5 1 3
1062 1 5 1.5 3.5
1063 1 5.5 1 3.5
1064 1 5.5 1.5 3
1065 1 6 1 0
1066 1 6 1.5 0.5
1067 1 6.5 1 0.5
1068 1 6.5 1.5 0
1069 1 6 1 1
1070 1 6 1.5 1.5
1071 1 6.5 1 1.5
1072 1 6.5 1.5 1
1073 1 6 1 2
1074 1 6 1.5 2.5
1075 1 6.5 1 2.5
1076 1 6.5 1.5 2
1077 1 6 1 3
1078 1 6 1.5 3.5
1079 1 6.5 1 3.5
1080 1 6.5 1.5 3
1081 1 7 1 0
1082 1 7 1.5 0.5
1083 1 7.5 1 0.5
1084 1 7.5 1.5 0
1085 1 7 1 1
1086 1 7 1.5 1.5
1087 1 7.5 1 1.5
1088 1 7.5 1.5 1
1089 1 7 1 2
1090 1 7 1.5 2.5
1091 1 7.5 1 2.5
1092 1 7.5 1.5 2
1093 1 7 1 3
1094 1 7 1.5 3.5
1095 1 7.5 1 3.5
1096 1 7.5 1.5 3
1097 1 8 1 0
1098 1 8 1.5 0.5
1099 1 8.5 1 0.5
1100 1 8.5 1.5 0
1101 1 8 1 1
1102 1 8 1.5 1.5
1103 1 8.5 1 1.5
1104 1 8.5 1.5 1
1105 1 8 1 2
1106 1 8 1.5 2.5
1107 1 8.5 1 2.5
1108 1 8.5 1.5 2
1109 1 8 1 3
1110 1 8 1.5 3.5
1111 1 8.5 1 3.5
1112 1 8.5 1.5 3
1113 1 9 1 0
1114 1 9 1.5 0.5
1115 1 9.5 1 0.5
1116 1 9.5 1.5 0
1117 1 9 1 1
1118 1 9 1.5 1.5
1119 1 9.5 1 1.5
1120 1 9.5 1.5 1
1121 1 9 1 2
1122 1 9 1.5 2.5
1123 1 9.5 1 2.5
1124 1 9.5 1.5 2
1125 1 9 1 3
1126 1 9 1.5 3.5
1127 1 9.5 1 3.5
1128 1 9.5 1.5 3
1129 1 10 1 0
1130 1 10 1.5 0.5
1131 1 10.5 1 0.5
1132 1 10.5 1.5 0
1133 1 10 1 1
1134 1 10 1.5 1.5
1135 1 10.5 1 1.5
1136 1 10.5 1.5 1
1137 1 10 1 2
1138 1 10 1.5 2.5
1139 1 10.5 1 2.5
1140 1 10.5 1.5 2
1141 1 10 1 3
1142 1 10 1.5 3.5
1143 1 10.5 1 3.5
1144 1 10.5 1.5 3
1145 1 11 1 0
1146 1 11 1.5 0.5
1147 1 11.5 1 0.5
1148 1 11.5 1.5 0
1149 1 11 1 1
1150 1 11 1.5 1.5
1151 1 11.5 1 1.5
1152 1 11.5 1.5 1
1153 1 11 1 2
1154 1 11 1.5 2.5
1155 1 11.5 1 2.5
1156 1 11.5 1.5 2
1157 1 11 1 3
1158 1 11 1.5 3.5
1159 1 11.5 1 3.5
1160 1 11.5 1.5 3
1161 1 12 1 0
1162 1 12 1.5 0.5
1163 1 12.5 1 0.5
1164 1 12.5 1.5 0
1165 1 12 1 1
1166 1 12 1.5 1.5
1167 1 12.5 1 1.5
1168 1 12.5 1.5 1
1169 1 12 1 2
1170 1 12 1.5 2.5
1171 1 12.5 1 2.5
1172 1 12.5 1.5 2
1173 1 12 1 3
1174 1 12 1.5 3.5
1175 1 12.5 1 3.5
1176 1 12.5 1.5 3
1177 1 13 1 0
1178 1 13 1.5 0.5
1179 1 13.5 1 0.5
1180 1 13.5 1.5 0
1181 1 13 1 1
1182 1 13 1.5 1.5
1183 1 13.5 1 1.5
1184 1 13.5 1.5 1
1185 1 13 1 2
1186 1 13 1.5 2.5
1187 1 13.5 1 2.5
1188 1 13.5 1.5 2
1189 1 13 1 3
1190 1 13 1.5 3.5
1191 1 13.5 1 3.5
1192 1 13.5 1.5 3
1193 1 14 1 0
1194 1 14 1.5 0.5
1195 1 14.5 1 0.5
1196 1 14.5 1.5 0
1197 1 14 1 1
1198 1 14 1.5 1.5
1199 1 14.5 1 1.5
1200 1 14.5 1.5 1
1201 1 14 1 2
1202 1 14 1.5 2.5
1203 1 14.5 1 2.5
1204 1 14.5 1.5 2
1205 1 14 1 3
1206 1 14 1.5 3.5
1207 1 14.5 1 3.5
1208 1 14.5 1.5 3
1209 1 15 1 0
1210 1 15 1.5 0.5
1211 1 15.5 1 0.5
1212 1 15.5 1.5 0
1213 1 15 1 1
1214 1 15 1.5 1.5
1215 1 15.5 1 1.5
1216 1 15.5 1.5 1
1217 1 15 1 2
1218 1 15 1.5 2.5
1219 1 15.5 1 2.5
1220 1 15.5 1.5 2
1221 1 15 1 3
1222 1 15 1.5 3.5
1223 1 15.5 1 3.5
1224 1 15.5 1.5 3
1225 1 16 1 0
1226 1 16 1.5 0.5
1227 1 16.5 1 0.5
1228 1 16.5 1.5 0
1229 1 16 1 1
1230 1 16 1.5 1.5
1231 1 16.5 1 1.5
1232 1 16.5 1.5 1
1233 1 16 1 2
1234 1 16 1.5 2.5
1235 1 16.5 1 2.5
1236 1 16.5 1.5 2
1237 1 16 1 3
1238 1 16 1.5 3.5
1239 1 16.5 1 3.5
1240 1 16.5 1.5 3
1241 1 17 1 0
1242 1 17 1.5 0.5
1243 1 17.5 1 0.5
1244 1 17.5 1.5 0
1245 1 17 1 1
1246 1 17 1.5 1.5
1247 1 17.5 1 1.5
1248 1 17.5 1.5 1
1249 1 17 1 2
1250 1 17 1.5 2.5
1251 1 17.5 1 2.5
1252 1 17.5 1.5 2
1253 1 17 1 3
1254 1 17 1.5 3.5
1255 1 17.5 1 3.5
1256 1 17.5 1.5 3
1257 1 18 1 0
1258 1 18 1.5 0.5
1259 1 18.5 1 0.5
1260 1 18.5 1.5 0
1261 1 18 1 1
1262 1 18 1.5 1.5
1263 1 18.5 1 1.5
1264 1 18.5 1.5 1
1265 1 18 1 2
1266 1 18 1.5 2.5
1267 1 18.5 1 2.5
1268 1 18.5 1.5 2
1269 1 18 1 3
1270 1 18 1.5 3.5
1271 1 18.5 1 3.5
1272 1 18.5 1.5 3
1273 1 19 1 0
1274 1 19 1.5 0.5
1275 1 19.5 1 0.5
1276 1 19.5 1.5 0
1277 1 19 1 1
1278 1 19 1.5 1.5
1279 1 19.5 1 1.5
1280 1 19.5 1.5 1
1281 1 19 1 2
1282 1 19 1.5 2.5
1283 1 19.5 1 2.5
1284 1 19.5 1.5 2
1285 1 19 1 3
1286 1 19 1.5 3.5
1287 1 19.5 1 3.5
1288 1 19.5 1.5 3
1289 1 20 1 0
1290 1 20 1.5 0.5
1291 1 20.5 1 0.5
1292 1 20.5 1.5 0
1293 1 20 1 1
1294 1 20 1.5 1.5
1295 1 20.5 1 1.5
1296 1 20.5 1.5 1
1297 1 20 1 2
1298 1 20 1.5 2.5
1299 1 20.5 1 2.5
1300 1 20.5 1.5 2
1301 1 20 1 3
1302 1 20 1.5 3.5
1303 1 20.5 1 3.5
1304 1 20.5 1.5 3
1305 1 21 1 0
1306 1 21 1.5 0.5
1307 1 21.5 1 0.5
1308 1 21.5 1.5 0
1309 1 21 1 1
1310 1 21 1.5 1.5
1311 1 21.5 1 1.5
1312 1 21.5 1.5 1
1313 1 21 1 2
1314 1 21 1.5 2.5
1315 1 21.5 1 2.5
1316 1 21.5 1.5 2
1317 1 21 1 3
1318 1 21 1.5 3.5
1319 1 21.5 1 3.5
1320 1 21.5 1.5 3
1321 1 22 1 0
1322 1 22 1.5 0.5
1323 1 22.5 1 0.5
1324 1 22.5 1.5 0
1325 1 22 1 1
1326 1 22 1.5 1.5
1327 1 22.5 1 1.5
1328 1 22.5 1.5 1
1329 1 22 1 2
1330 1 22 1.5 2.5
1331 1 22.5 1 2.5
1332 1 22.5 1.5 2
1333 1 22 1 3
1334 1 22 1.5 3.5
1335 1 22.5 1 3.5
1336 1 22.5 1.5 3
1337 1 23 1 0
1338 1 23 1.5 0.5
1339 1 23.5 1 0.5
1340 1 23.5 1.5 0
1341 1 23 1 1
1342 1 23 1.5 1.5
1343 1 23.5 1 1.5
1344 1 23.5 1.5 1
1345 1 23 1 2
1346 1 23 1.5 2.5
1347 1 23.5 1 2.5
1348 1 23.5 1.5 2
1349 1 23 1 3
1350 1 23 1.5 3.5
1351 1 23.5 1 3.5
1352 1 23.5 1.5 3
1353 1 24 1 0
1354 1 24 1.5 0.5
1355 1 24.5 1 0.5
1356 1 24.5 1.5 0
1357 1 24 1 1
1358 1 24 1.5 1.5
1359 1 24.5 1 1.5
1360 1 24.5 1.5 1
1361 1 24 1 2
1362 1 24 1.5 2.5
1363 1 24.5 1 2.5
1364 1 24.5 1.5 2
1365 1 24 1 3
1366 1 24 1.5 3.5
1367 1 24.5 1 3.5
1368 1 24.5 1.5 3
1369 1 25 1 0
1370 1 25 1.5 0.5
1371 1 25.5 1 0.5
1372 1 25.5 1.5 0
1373 1 25 1 1
1374 1 25 1.5 1.5
1375 1 25.5 1 1.5
1376 1 25.5 1.5 1
1377 1 25 1 2
1378 1 25 1.5 2.5
1379 1 25.5 1 2.5
1380 1 25.5 1.5 2
1381 1 25 1 3
1382 1 25 1.5 3.5
1383 1 25.5 1 3.5
1384 1 25.5 1.5 3
1385 1 26 1 0
1386 1 26 1.5 0.5
1387 1 26.5 1 0.5
1388 1 26.5 1.5 0
1389 1 26 1 1
1390 1 26 1.5 1.5
1391 1 26.5 1 1.5
1392 1 26.5 1.5 1
1393 1 26 1 2
1394 1 26 1.5 2.5
1395 1 26.5 1 2.5
1396 1 26.5 1.5 2
1397 1 26 1 3
1398 1 26 1.5 3.5
1399 1 26.5 1 3.5
1400 1 26.5 1.5 3
1401 1 27 1 0
1402 1 27 1.5 0.5
1403 1 27.5 1 0.5
1404 1 27.5 1.5 0
1405 1 27 1 1
1406 1 27 1.5 1.5
1407 1 27.5 1 1.5
1408 1 27.5 1.5 1
1409 1 27 1 2
1410 1 27 1.5 2.5
1411 1 27.5 1 2.5
1412 1 27.5 1.5 2
1413 1 27 1 3
1414 1 27 1.5 3.5
1415 1 27.5 1 3.5
1416 1 27.5 1.5 3
1417 1 28 1 0
1418 1 28 1.5 0.5
1419 1 28.5 1 0.5
1420 1 28.5 1.5 0
1421 1 28 1 1
1422 1 28 1.5 1.5
1423 1 28.5 1 1.5
1424 1 28.5 1.5 1
1425 1 28 1 2
1426 1 28 1.5 2.5
1427 1 28.5 1 2.5
1428 1 28.5 1.5 2
1429 1 28 1 3
1430 1 28 1.5 3.5
1431 1 28.5 1 3.5
1432 1 28.5 1.5 3
1433 1 29 1 0
1434 1 29 1.5 0.5
1435 1 29.5 1 0.5
1436 1 29.5 1.5 0
1437 1 29 1 1
1438 1 29 1.5 1.5
1439 1 29.5 1 1.5
1440 1 29.5 1.5 1
1441 1 29 1 2
1442 1 29 1.5 2.5
1443 1 29.5 1 2.5
1444 1 29.5 1.5 2
1445 1 29 1 3
1446 1 29 1.5 3.5
1447 1 29.5 1 3.5
1448 1 29.5 1.5 3
1449 1 30 1 0
1450 1 30 1.5 0.5
1451 1 30.5 1 0.5
1452 1 30.5 1.5 0
1453 1 30 1 1
1454 1 30 1.5 1.5
1455 1 30.5 1 1.5
1456 1 30.5 1.5 1
1457 1 30 1 2
1458 1 30 1.5 2.5
1459 1 30.5 1 2.5
1460 1 30.5 1.5 2
1461 1 30 1 3
1462 1 30 1.5 3.5
1463 1 30.5 1 3.5
1464 1 30.5 1.5 3
1465 1 31 1 0
1466 1 31 1.5 0.5
1467 1 31.5 1 0.5
1468 1 31.5 1.5 0
1469 1 31 1 1
1470 1 31 1.5 1.5
1471 1 31.5 1 1.5
1472 1 31.5 1.5 1
1473 1 31 1 2
1474 1 31 1.5 2.5
1475 1 31.5 1 2.5
1476 1 31.5 1.5 2
1477 1 31 1 3
1478 1 31 1.5 3.5
1479 1 31.5 1 3.5
1480 1 31.5 1.5 3
1481 1 32 1 0
1482 1 32 1.5 0.5
1483 1 32.5 1 0.5
1484 1 32.5 1.5 0
1485 1 32 1 1
1486 1 32 1.5 1.5
1487 1 32.5 1 1.5
1488 1 32.5 1.5 1
1489 1 32 1 2
1490 1 32 1.5 2.5
1491 1 32.5 1 2.5
1492 1 32.5 1.5 2
1493 1 32 1 3
1494 1 32 1.5 3.5
1495 1 32.5 1 3.5
1496 1 32.5 1.5 3
1497 1 33 1 0
1498 1 33 1.5 0.5
1499 1 33.5 1 0.5
1500 1 33.5 1.5 0
1501 1 33 1 1
1502 1 33 1.5 1.5
1503 1 33.5 1 1.5
1504 1 33.5 1.5 1
1505 1 33 1 2
1506 1 33 1.5 2.5
1507 1 33.5 1 2.5
1508 1 33.5 1.5 2
1509 1 33 1 3
1510 1 33 1.5 3.5
1511 1 33.5 1 3.5
1512 1 33.5 1.5 3
1513 1 34 1 0
1514 1 34 1.5 0.5
1515 1 34.5 1 0.5
1516 1 34.5 1.5 0
1517 1 34 1 1
1518 1 34 1.5 1.5
1519 1 34.5 1 1.5
1520 1 34.5 1.5 1
1521 1 34 1 2
1522 1 34 1.5 2.5
1523 1 34.5 1 2.5
1524 1 34.5 1.5 2
1525 1 34 1 3
1526 1 34 1.5 3.5
1527 1 34.5 1 3.5
1528 1 34.5 1.5 3
1529 1 35 1 0
1530 1 35 1.5 0.5
1531 1 35.5 1 0.5
1532 1 35.5 1.5 0
1533 1 35 1 1
1534 1 35 1.5 1.5
1535 1 35.5 1 1.5
1536 1 35.5 1.5 1
1537 1 35 1 2
1538 1 35 1.5 2.5
1539 1 35.5 1 2.5
1540 1 35.5 1.5 2
1541 1 35 1 3
1542 1 35 1.5 3.5
1543 1 35.5 1 3.5
1544 1 35.5 1.5 3
1545 1 36 1 0
1546 1 36 1.5 0.5
1547 1 36.5 1 0.5
1548 1 36.5 1.5 0
1549 1 36 1 1
1550 1 36 1.5 1.5
1551 1 36.5 1 1.5
1552 1 36.5 1.5 1
1553 1 36 1 2
1554 1 36 1.5 2.5
1555 1 36.5 1 2.5
1556 1 36.5 1.5 2
1557 1 36 1 3
1558 1 36 1.5 3.5
1559 1 36.5 1 3.5
1560 1 36.5 1.5 3
1561 1 37 1 0
1562 1 37 1.5 0.5
1563 1 37.5 1 0.5
1564 1 37.5 1.5 0
1565 1 37 1 1
1566 1 37 1.5 1.5
1567 1 37.5 1 1.5
1568 1 37.5 1.5 1
1569 1 37 1 2
1570 1 37 1.5 2.5
1571 1 37.5 1 2.5
1572 1 37.5 1.5 2
1573 1 37 1 3
1574 1 37 1.5 3.5
1575 1 37.5 1 3.5
1576 1 37.5 1.5 3
1577 1 38 1 0
1578 1 38 1.5 0.5
1579 1 38.5 1 0.5
1580 1 38.5 1.5 0
1581 1 38 1 1
1582 1 38 1.5 1.5
1583 1 38.5 1 1.5
1584 1 38.5 1.5 1
1585 1 38 1 2
1586 1 38 1.5 2.5
1587 1 38.5 1 2.5
1588 1 38.5 1.5 2
1589 1 38 1 3
1590 1 38 1.5 3.5
1591 1 38.5 1 3.5
1592 1 38.5 1.5 3
1593 1 39 1 0
1594 1 39 1.5 0.5
1595 1 39.5 1 0.5
1596 1 39.5 1.5 0
1597 1 39 1 1
1598 1 39 1.5 1.5
1599 1 39.5 1 1.5
1600 1 39.5 1.5 1
1601 1 39 1 2
1602 1 39 1.5 2.5
1603 1 39.5 1 2.5
1604 1 39.5 1.5 2
1605 1 39 1 3
1606 1 39 1.5 3.5
1607 1 39.5 1 3.5
1608 1 39.5 1.5 3
1609 1 40 1 0
1610 1 40 1.5 0.5
1611 1 40.5 1 0.5
1612 1 40.5 1.5 0
1613 1 40 1 1
1614 1 40 1.5 1.5
1615 1 40.5 1 1.5
1616 1 40.5 1.5 1
1617 1 40 1 2
1618 1 40 1.5 2.5
1619 1 40.5 1 2.5
1620 1 40.5 1.5 2
1621 1 40 1 3
1622 1 40 1.5 3.5
1623 1 40.5 1 3.5
1624 1 40.5 1.5 3
1625 1 41 1 0
1626 1 41 1.5 0.5
1627 1 41.5 1 0.5
1628 1 41.5 1.5 0
1629 1 41 1 1
1630 1 41 1.5 1.5
1631 1 41.5 1 1.5
1632 1 41.5 1.5 1
1633 1 41 1 2
1634 1 41 1.5 2.5
1635 1 41.5 1 2.5
1636 1 41.5 1.5 2
1637 1 41 1 3
1638 1 41 1.5 3.5
1639 1 41.5 1 3.5
1640 1 41.5 1.5 3
1641 1 42 1 0
1642 1 42 1.5 0.5
1643 1 42.5 1 0.5
1644 1 42.5 1.5 0
1645 1 42 1 1
1646 1 42 1.5 1.5
1647 1 42.5 1 1.5
1648 1 42.5 1.5 1
1649 1 42 1 2
1650 1 42 1.5 2.5
1651 1 42.5 1 2.5
1652 1 42.5 1.5 2
1653 1 42 1 3
1654 1 42 1.5 3.5
1655 1 42.5 1 3.5
1656 1 42.5 1.5 3
1657 1 43 1 0
1658 1 43 1.5 0.5
1659 1 43.5 1 0.5
1660 1 43.5 1.5 0
1661 1 43 1 1
1662 1 43 1.5 1.5
1663 1 43.5 1 1.5
1664 1 43.5 1.5 1
1665 1 43 1 2
1666 1 43 1.5 2.5
1667 1 43.5 1 2.5
1668 1 43.5 1.5 2
1669 1 43 1 3
1670 1 43 1.5 3.5
1671 1 43.5 1 3.5
1672 1 43.5 1.5 3
1673 1 44 1 0
1674 1 44 1.5 0.5
1675 1 44.5 1 0.5
1676 1 44.5 1.5 0
1677 1 44 1 1
1678 1 44 1.5 1.5
1679 1 44.5 1 1.5
1680 1 44.5 1.5 1
1681 1 44 1 2
1682 1 44 1.5 2.5
1683 1 44.5 1 2.5
1684 1 44.5 1.5 2
1685 1 44 1 3
1686 1 44 1.5 3.5
1687 1 44.5 1 3.5
1688 1 44.5 1.5 3
1689 1 45 1 0
1690 1 45 1.5 0.5
1691 1 45.5 1 0.5
1692 1 45.5 1.5 0
1693 1 45 1 1
1694 1 45 1.5 1.5
1695 1 45.5 1 1.5
1696 1 45.5 1.5 1
1697 1 45 1 2
1698 1 45 1.5 2.5
1699 1 45.5 1 2.5
1700 1 45.5 1.5 2
1701 1 45 1 3
1702 1 45 1.5 3.5
1703 1 45.5 1 3.5
1704 1 45.5 1.5 3
1705 1 46 1 0
1706 1 46 1.5 0.5
1707 1 46.5 1 0.5
1708 1 46.5 1.5 0
1709 1 46 1 1
1710 1 46 1.5 1.5
1711 1 46.5 1 1.5
1712 1 46.5 1.5 1
1713 1 46 1 2
1714 1 46 1.5 2.5
1715 1 46.5 1 2.5
1716 1 46.5 1.5 2
1717 1 46 1 3
1718 1 46 1.5 3.5
1719 1 46.5 1 3.5
1720 1 46.5 1.5 3
1721 1 47 1 0
1722 1 47 1.5 0.5
1723 1 47.5 1 0.5
1724 1 47.5 1.5 0
1725 1 47 1 1
1726 1 47 1.5 1.5
1727 1 47.5 1 1.5
1728 1 47.5 1.5 1
1729 1 47 1 2
1730 1 47 1.5 2.5
1731 1 47.5 1 2.5
1732 1 47.5 1.5 2
1733 1 47 1 3
1734 1 47 1.5 3.5
1735 1 47.5 1 3.5
1736 1 47.5 1.5 3
1737 1 48 1 0
1738 1 48 1.5 0.5
1739 1 48.5 1 0.5
1740 1 48.5 1.5 0
1741 1 48 1 1
1742 1 48 1.5 1.5
1743 1 48.5 1 1.5
1744 1 48.5 1.5 1
1745 1 48 1 2
1746 1 48 1.5 2.5
1747 1 48.5 1 2.5
1748 1 48.5 1.5 2
1749 1 48 1 3
1750 1 48 1.5 3.5
1751 1 48.5 1 3.5
1752 1 48.5 1.5 3
1753 1 49 1 0
1754 1 49 1.5 0.5
1755 1 49.5 1 0.5
1756 1 49.5 1.5 0
1757 1 49 1 1
1758 1 49 1.5 1.5
1759 1 49.5 1 1.5
1760 1 49.5 1.5 1
1761 1 49 1 2
1762 1 49 1.5 2.5
1763 1 49.5 1 2.5
1764 1 49.5 1.5 2
1765 1 49 1 3
1766 1 49 1.5 3.5
1767 1 49.5 1 3.5
1768 1 49.5 1.5 3
1769 1 50 1 0
1770 1 50 1.5 0.5
1771 1 50.5 1 0.5
1772 1 50.5 1.5 0
1773 1 50 1 1
1774 1 50 1.5 1.5
1775 1 50.5 1 1.5
1776 1 50.5 1.5 1
1777 1 50 1 2
1778 1 50 1.5 2.5
1779 1 50.5 1 2.5
1780 1 50.5 1.5 2
1781 1 50 1 3
1782 1 50 1.5 3.5
1783 1 50.5 1 3.5
1784 1 50.5 1.5 3
1785 1 51 1 0
1786 1 51 1.5 0.5
1787 1 51.5 1 0.5
1788 1 51.5 1.5 0
1789 1 51 1 1
1790 1 51 1.5 1.5
1791 1 51.5 1 1.5
1792 1 51.5 1.5 1
1793 1 51 1 2
1794 1 51 1.5 2.5
1795 1 51.5 1 2.5
1796 1 51.5 1.5 2
1797 1 51 1 3
1798 1 51 1.5 3.5
1799 1 51.5 1 3.5
1800 1 51.5 1.5 3
1801 1 52 1 0
1802 1 52 1.5 0.5
1803 1 52.5 1 0.5
1804 1 52.5 1.5 0
1805 1 52 1 1
1806 1 52 1.5 1.5
1807 1 52.5 1 1.5
1808 1 52.5 1.5 1
1809 1 52 1 2
1810 1 52 1.5 2.5
1811 1 52.5 1 2.5
1812 1 52.5 1.5 2
1813 1 52 1 3
1814 1 52 1.5 3.5
1815 1 52.5 1 3.5
1816 1 52.5 1.5 3
1817 1 53 1 0
1818 1 53 1.5 0.5
1819 1 53.5 1 0.5
1820 1 53.5 1.5 0
1821 1 53 1 1
1822 1 53 1.5 1.5
1823 1 53.5 1 1.5
1824 1 53.5 1.5 1
1825 1 53 1 2
1826 1 53 1.5 2.5
1827 1 53.5 1 2.5
1828 1 53.5 1.5 2
1829 1 53 1 3
1830 1 53 1.5 3.5
1831 1 53.5 1 3.5
1832 1 53.5 1.5 3
1833 1 54 1 0
1834 1 54 1.5 0.5
1835 1 54.5 1 0.5