ITEM: TIMESTEP
0
ITEM: NUMBER OF ATOMS
792
ITEM: BOX BOUNDS pp pp pp
-1.0000000000000000e+01 3.0000000000000000e+01
0.0000000000000000e+00 2.1240000000000002e+01
0.0000000000000000e+00 2.1240000000000002e+01
ITEM: ATOMS id type x y z typelabel
1 1 1.77 1.77 3.54 Cu
2 1 1.77 1.77 7.08 Cu
3 1 1.77 1.77 10.62 Cu
4 1 1.77 1.77 14.16 Cu
5 1 1.77 1.77 17.7 Cu
6 1 1.77 1.77 21.24 Cu
7 1 3.54 1.77 1.77 Cu
8 1 3.54 1.77 5.31 Cu
9 1 5.31 1.77 3.54 Cu
10 1 3.54 1.77 8.85 Cu
11 1 5.31 1.77 7.08 Cu
12 1 3.54 1.77 12.39 Cu
13 1 5.31 1.77 10.62 Cu
14 1 3.54 1.77 15.93 Cu
15 1 5.31 1.77 14.16 Cu
16 1 3.54 1.77 19.47 Cu
17 1 5.31 1.77 17.7 Cu
18 1 5.31 1.77 21.24 Cu
19 1 7.08 1.77 1.77 Cu
20 1 7.08 1.77 5.31 Cu
21 1 8.85 1.77 3.54 Cu
22 1 7.08 1.77 8.85 Cu
23 1 8.85 1.77 7.08 Cu
24 1 7.08 1.77 12.39 Cu
25 1 8.85 1.77 10.62 Cu
26 1 7.08 1.77 15.93 Cu
27 1 8.85 1.77 14.16 Cu
28 1 7.08 1.77 19.47 Cu
29 1 8.85 1.77 17.7 Cu
30 1 8.85 1.77 21.24 Cu
31 1 1.77 3.54 1.77 Cu
32 1 1.77 3.54 5.31 Cu
33 1 1.77 5.31 3.54 Cu
34 1 1.77 3.54 8.85 Cu
35 1 1.77 5.31 7.08 Cu
36 1 1.77 3.54 12.39 Cu
37 1 1.77 5.31 10.62 Cu
38 1 1.77 3.54 15.93 Cu
39 1 1.77 5.31 14.16 Cu
40 1 1.77 3.54 19.47 Cu
41 1 1.77 5.31 17.7 Cu
42 1 1.77 5.31 21.24 Cu
43 1 3.54 5.31 1.77 Cu
44 1 5.31 3.54 1.77 Cu
45 1 3.54 3.54 3.54 Cu
46 1 3.54 5.31 5.31 Cu
47 1 5.31 3.54 5.31 Cu
48 1 5.31 5.31 3.54 Cu
49 1 3.54 3.54 7.08 Cu
50 1 3.54 5.31 8.85 Cu
51 1 5.31 3.54 8.85 Cu
52 1 5.31 5.31 7.08 Cu
53 1 3.54 3.54 10.62 Cu
54 1 3.54 5.31 12.39 Cu
55 1 5.31 3.54 12.39 Cu
56 1 5.31 5.31 10.62 Cu
57 1 3.54 3.54 14.16 Cu
58 1 3.54 5.31 15.93 Cu
59 1 5.31 3.54 15.93 Cu
60 1 5.31 5.31 14.16 Cu
61 1 3.54 3.54 17.7 Cu
62 1 3.54 5.31 19.47 Cu
63 1 5.31 3.54 19.47 Cu
64 1 5.31 5.31 17.7 Cu
65 1 3.54 3.54 21.24 Cu
66 1 5.31 5.31 21.24 Cu
67 1 7.08 5.31 1.77 Cu
68 1 8.85 3.54 1.77 Cu
69 1 7.08 3.54 3.54 Cu
70 1 7.08 5.31 5.31 Cu
71 1 8.85 3.54 5.31 Cu
72 1 8.85 5.31 3.54 Cu
73 1 7.08 3.54 7.08 Cu
74 1 7.08 5.31 8.85 Cu
75 1 8.85 3.54 8.85 Cu
76 1 8.85 5.31 7.08 Cu
77 1 7.08 3.54 10.62 Cu
78 1 7.08 5.31 12.39 Cu
79 1 8.85 3.54 12.39 Cu
80 1 8.85 5.31 10.62 Cu
81 1 7.08 3.54 14.16 Cu
82 1 7.08 5.31 15.93 Cu
83 1 8.85 3.54 15.93 Cu
84 1 8.85 5.31 14.16 Cu
85 1 7.08 3.54 17.7 Cu
86 1 7.08 5.31 19.47 Cu
87 1 8.85 3.54 19.47 Cu
88 1 8.85 5.31 17.7 Cu
89 1 7.08 3.54 21.24 Cu
90 1 8.85 5.31 21.24 Cu
91 1 1.77 7.08 1.77 Cu
92 1 1.77 7.08 5.31 Cu
93 1 1.77 8.85 3.54 Cu
94 1 1.77 7.08 8.85 Cu
95 1 1.77 8.85 7.08 Cu
96 1 1.77 7.08 12.39 Cu
97 1 1.77 8.85 10.62 Cu
98 1 1.77 7.08 15.93 Cu
99 1 1.77 8.85 14.16 Cu
100 1 1.77 7.08 19.47 Cu
101 1 1.77 8.85 17.7 Cu
102 1 1.77 8.85 21.24 Cu
103 1 3.54 8.85 1.77 Cu
104 1 5.31 7.08 1.77 Cu
105 1 3.54 7.08 3.54 Cu
106 1 3.54 8.85 5.31 Cu
107 1 5.31 7.08 5.31 Cu
108 1 5.31 8.85 3.54 Cu
109 1 3.54 7.08 7.08 Cu
110 1 3.54 8.85 8.85 Cu
111 1 5.31 7.08 8.85 Cu
112 1 5.31 8.85 7.08 Cu
113 1 3.54 7.08 10.62 Cu
114 1 3.54 8.85 12.39 Cu
115 1 5.31 7.08 12.39 Cu
116 1 5.31 8.85 10.62 Cu
117 1 3.54 7.08 14.16 Cu
118 1 3.54 8.85 15.93 Cu
119 1 5.31 7.08 15.93 Cu
120 1 5.31 8.85 14.16 Cu
121 1 3.54 7.08 17.7 Cu
122 1 3.54 8.85 19.47 Cu
123 1 5.31 7.08 19.47 Cu
124 1 5.31 8.85 17.7 Cu
125 1 3.54 7.08 21.24 Cu
126 1 5.31 8.85 21.24 Cu
127 1 7.08 8.85 1.77 Cu
128 1 8.85 7.08 1.77 Cu
129 1 7.08 7.08 3.54 Cu
130 1 7.08 8.85 5.31 Cu
131 1 8.85 7.08 5.31 Cu
132 1 8.85 8.85 3.54 Cu
133 1 7.08 7.08 7.08 Cu
134 1 7.08 8.85 8.85 Cu
135 1 8.85 7.08 8.85 Cu
136 1 8.85 8.85 7.08 Cu
137 1 7.08 7.08 10.62 Cu
138 1 7.08 8.85 12.39 Cu
139 1 8.85 7.08 12.39 Cu
140 1 8.85 8.85 10.62 Cu
141 1 7.08 7.08 14.16 Cu
142 1 7.08 8.85 15.93 Cu
143 1 8.85 7.08 15.93 Cu
144 1 8.85 8.85 14.16 Cu
145 1 7.08 7.08 17.7 Cu
146 1 7.08 8.85 19.47 Cu
147 1 8.85 7.08 19.47 Cu
148 1 8.85 8.85 17.7 Cu
149 1 7.08 7.08 21.24 Cu
150 1 8.85 8.85 21.24 Cu
151 1 1.77 10.62 1.77 Cu
152 1 1.77 10.62 5.31 Cu
153 1 1.77 12.39 3.54 Cu
154 1 1.77 10.62 8.85 Cu
155 1 1.77 12.39 7.08 Cu
156 1 1.77 10.62 12.39 Cu
157 1 1.77 12.39 10.62 Cu
158 1 1.77 10.62 15.93 Cu
159 1 1.77 12.39 14.16 Cu
160 1 1.77 10.62 19.47 Cu
161 1 1.77 12.39 17.7 Cu
162 1 1.77 12.39 21.24 Cu
163 1 3.54 12.39 1.77 Cu
164 1 5.31 10.62 1.77 Cu
165 1 3.54 10.62 3.54 Cu
166 1 3.54 12.39 5.31 Cu
167 1 5.31 10.62 5.31 Cu
168 1 5.31 12.39 3.54 Cu
169 1 3.54 10.62 7.08 Cu
170 1 3.54 12.39 8.85 Cu
171 1 5.31 10.62 8.85 Cu
172 1 5.31 12.39 7.08 Cu
173 1 3.54 10.62 10.62 Cu
174 1 3.54 12.39 12.39 Cu
175 1 5.31 10.62 12.39 Cu
176 1 5.31 12.39 10.62 Cu
177 1 3.54 10.62 14.16 Cu
178 1 3.54 12.39 15.93 Cu
179 1 5.31 10.62 15.93 Cu
180 1 5.31 12.39 14.16 Cu
181 1 3.54 10.62 17.7 Cu
182 1 3.54 12.39 19.47 Cu
183 1 5.31 10.62 19.47 Cu
184 1 5.31 12.39 17.7 Cu
185 1 3.54 10.62 21.24 Cu
186 1 5.31 12.39 21.24 Cu
187 1 7.08 12.39 1.77 Cu
188 1 8.85 10.62 1.77 Cu
189 1 7.08 10.62 3.54 Cu
190 1 7.08 12.39 5.31 Cu
191 1 8.85 10.62 5.31 Cu
192 1 8.85 12.39 3.54 Cu
193 1 7.08 10.62 7.08 Cu
194 1 7.08 12.39 8.85 Cu
195 1 8.85 10.62 8.85 Cu
196 1 8.85 12.39 7.08 Cu
197 1 7.08 10.62 10.62 Cu
198 1 7.08 12.39 12.39 Cu
199 1 8.85 10.62 12.39 Cu
200 1 8.85 12.39 10.62 Cu
201 1 7.08 10.62 14.16 Cu
202 1 7.08 12.39 15.93 Cu
203 1 8.85 10.62 15.93 Cu
204 1 8.85 12.39 14.16 Cu
205 1 7.08 10.62 17.7 Cu
206 1 7.08 12.39 19.47 Cu
207 1 8.85 10.62 19.47 Cu
208 1 8.85 12.39 17.7 Cu
209 1 7.08 10.62 21.24 Cu
210 1 8.85 12.39 21.24 Cu
211 1 1.77 14.16 1.77 Cu
212 1 1.77 14.16 5.31 Cu
213 1 1.77 15.93 3.54 Cu
214 1 1.77 14.16 8.85 Cu
215 1 1.77 15.93 7.08 Cu
216 1 1.77 14.16 12.39 Cu
217 1 1.77 15.93 10.62 Cu
218 1 1.77 14.16 15.93 Cu
219 1 1.77 15.93 14.16 Cu
220 1 1.77 14.16 19.47 Cu
221 1 1.77 15.93 17.7 Cu
222 1 1.77 15.93 21.24 Cu
223 1 3.54 15.93 1.77 Cu
224 1 5.31 14.16 1.77 Cu
225 1 3.54 14.16 3.54 Cu
226 1 3.54 15.93 5.31 Cu
227 1 5.31 14.16 5.31 Cu
228 1 5.31 15.93 3.54 Cu
229 1 3.54 14.16 7.08 Cu
230 1 3.54 15.93 8.85 Cu
231 1 5.31 14.16 8.85 Cu
232 1 5.31 15.93 7.08 Cu
233 1 3.54 14.16 10.62 Cu
234 1 3.54 15.93 12.39 Cu
235 1 5.31 14.16 12.39 Cu
236 1 5.31 15.93 10.62 Cu
237 1 3.54 14.16 14.16 Cu
238 1 3.54 15.93 15.93 Cu
239 1 5.31 14.16 15.93 Cu
240 1 5.31 15.93 14.16 Cu
241 1 3.54 14.16 17.7 Cu
242 1 3.54 15.93 19.47 Cu
243 1 5.31 14.16 19.47 Cu
244 1 5.31 15.93 17.7 Cu
245 1 3.54 14.16 21.24 Cu
246 1 5.31 15.93 21.24 Cu
247 1 7.08 15.93 1.77 Cu
248 1 8.85 14.16 1.77 Cu
249 1 7.08 14.16 3.54 Cu
250 1 7.08 15.93 5.31 Cu
251 1 8.85 14.16 5.31 Cu
252 1 8.85 15.93 3.54 Cu
253 1 7.08 14.16 7.08 Cu
254 1 7.08 15.93 8.85 Cu
255 1 8.85 14.16 8.85 Cu
256 1 8.85 15.93 7.08 Cu
257 1 7.08 14.16 10.62 Cu
258 1 7.08 15.93 12.39 Cu
259 1 8.85 14.16 12.39 Cu
260 1 8.85 15.93 10.62 Cu
261 1 7.08 14.16 14.16 Cu
262 1 7.08 15.93 15.93 Cu
263 1 8.85 14.16 15.93 Cu
264 1 8.85 15.93 14.16 Cu
265 1 7.08 14.16 17.7 Cu
266 1 7.08 15.93 19.47 Cu
267 1 8.85 14.16 19.47 Cu
268 1 8.85 15.93 17.7 Cu
269 1 7.08 14.16 21.24 Cu
270 1 8.85 15.93 21.24 Cu
271 1 1.77 17.7 1.77 Cu
272 1 1.77 17.7 5.31 Cu
273 1 1.77 19.47 3.54 Cu
274 1 1.77 17.7 8.85 Cu
275 1 1.77 19.47 7.08 Cu
276 1 1.77 17.7 12.39 Cu
277 1 1.77 19.47 10.62 Cu
278 1 1.77 17.7 15.93 Cu
279 1 1.77 19.47 14.16 Cu
280 1 1.77 17.7 19.47 Cu
281 1 1.77 19.47 17.7 Cu
282 1 1.77 19.47 21.24 Cu
283 1 3.54 19.47 1.77 Cu
284 1 5.31 17.7 1.77 Cu
285 1 3.54 17.7 3.54 Cu
286 1 3.54 19.47 5.31 Cu
287 1 5.31 17.7 5.31 Cu
288 1 5.31 19.47 3.54 Cu
289 1 3.54 17.7 7.08 Cu
290 1 3.54 19.47 8.85 Cu
291 1 5.31 17.7 8.85 Cu
292 1 5.31 19.47 7.08 Cu
293 1 3.54 17.7 10.62 Cu
294 1 3.54 19.47 12.39 Cu
295 1 5.31 17.7 12.39 Cu
296 1 5.31 19.47 10.62 Cu
297 1 3.54 17.7 14.16 Cu
298 1 3.54 19.47 15.93 Cu
299 1 5.31 17.7 15.93 Cu
300 1 5.31 19.47 14.16 Cu
301 1 3.54 17.7 17.7 Cu
302 1 3.54 19.47 19.47 Cu
303 1 5.31 17.7 19.47 Cu
304 1 5.31 19.47 17.7 Cu
305 1 3.54 17.7 21.24 Cu
306 1 5.31 19.47 21.24 Cu
307 1 7.08 19.47 1.77 Cu
308 1 8.85 17.7 1.77 Cu
309 1 7.08 17.7 3.54 Cu
310 1 7.08 19.47 5.31 Cu
311 1 8.85 17.7 5.31 Cu
312 1 8.85 19.47 3.54 Cu
313 1 7.08 17.7 7.08 Cu
314 1 7.08 19.47 8.85 Cu
315 1 8.85 17.7 8.85 Cu
316 1 8.85 19.47 7.08 Cu
317 1 7.08 17.7 10.62 Cu
318 1 7.08 19.47 12.39 Cu
319 1 8.85 17.7 12.39 Cu
320 1 8.85 19.47 10.62 Cu
321 1 7.08 17.7 14.16 Cu
322 1 7.08 19.47 15.93 Cu
323 1 8.85 17.7 15.93 Cu
324 1 8.85 19.47 14.16 Cu
325 1 7.08 17.7 17.7 Cu
326 1 7.08 19.47 19.47 Cu
327 1 8.85 17.7 19.47 Cu
328 1 8.85 19.47 17.7 Cu
329 1 7.08 17.7 21.24 Cu
330 1 8.85 19.47 21.24 Cu
331 1 1.77 21.24 1.77 Cu
332 1 1.77 21.24 5.31 Cu
333 1 1.77 21.24 8.85 Cu
334 1 1.77 21.24 12.39 Cu
335 1 1.77 21.24 15.93 Cu
336 1 1.77 21.24 19.47 Cu
337 1 5.31 21.24 1.77 Cu
338 1 3.54 21.24 3.54 Cu
339 1 5.31 21.24 5.31 Cu
340 1 3.54 21.24 7.08 Cu
341 1 5.31 21.24 8.85 Cu
342 1 3.54 21.24 10.62 Cu
343 1 5.31 21.24 12.39 Cu
344 1 3.54 21.24 14.16 Cu
345 1 5.31 21.24 15.93 Cu
346 1 3.54 21.24 17.7 Cu
347 1 5.31 21.24 19.47 Cu
348 1 3.54 21.24 21.24 Cu
349 1 8.85 21.24 1.77 Cu
350 1 7.08 21.24 3.54 Cu
351 1 8.85 21.24 5.31 Cu
352 1 7.08 21.24 7.08 Cu
353 1 8.85 21.24 8.85 Cu
354 1 7.08 21.24 10.62 Cu
355 1 8.85 21.24 12.39 Cu
356 1 7.08 21.24 14.16 Cu
357 1 8.85 21.24 15.93 Cu
358 1 7.08 21.24 17.7 Cu
359 1 8.85 21.24 19.47 Cu
360 1 7.08 21.24 21.24 Cu
361 1 10.62 14.16 3.54 Cu
362 1 10.62 14.16 7.08 Cu
363 1 10.62 14.16 10.62 Cu
364 1 10.62 14.16 14.16 Cu
365 1 10.62 14.16 17.7 Cu
366 1 10.62 14.16 21.24 Cu
367 1 12.39 14.16 1.77 Cu
368 1 12.39 14.16 5.31 Cu
369 1 14.16 14.16 3.54 Cu
370 1 12.39 14.16 8.85 Cu
371 1 14.16 14.16 7.08 Cu
372 1 12.39 14.16 12.39 Cu
373 1 14.16 14.16 10.62 Cu
374 1 12.39 14.16 15.93 Cu
375 1 14.16 14.16 14.16 Cu
376 1 12.39 14.16 19.47 Cu
377 1 14.16 14.16 17.7 Cu
378 1 14.16 14.16 21.24 Cu
379 1 15.93 14.16 1.77 Cu
380 1 15.93 14.16 5.31 Cu
381 1 17.7 14.16 3.54 Cu
382 1 15.93 14.16 8.85 Cu
383 1 17.7 14.16 7.08 Cu
384 1 15.93 14.16 12.39 Cu
385 1 17.7 14.16 10.62 Cu
386 1 15.93 14.16 15.93 Cu
387 1 17.7 14.16 14.16 Cu
388 1 15.93 14.16 19.47 Cu
389 1 17.7 14.16 17.7 Cu
390 1 17.7 14.16 21.24 Cu
391 1 19.47 14.16 1.77 Cu
392 1 19.47 14.16 5.31 Cu
393 1 19.47 14.16 8.85 Cu
394 1 19.47 14.16 12.39 Cu
395 1 19.47 14.16 15.93 Cu
396 1 19.47 14.16 19.47 Cu
397 1 10.62 15.93 1.77 Cu
398 1 10.62 15.93 5.31 Cu
399 1 10.62 17.7 3.54 Cu
400 1 10.62 15.93 8.85 Cu
401 1 10.62 17.7 7.08 Cu
402 1 10.62 15.93 12.39 Cu
403 1 10.62 17.7 10.62 Cu
404 1 10.62 15.93 15.93 Cu
405 1 10.62 17.7 14.16 Cu
406 1 10.62 15.93 19.47 Cu
407 1 10.62 17.7 17.7 Cu
408 1 10.62 17.7 21.24 Cu
409 1 12.39 17.7 1.77 Cu
410 1 14.16 15.93 1.77 Cu
411 1 12.39 15.93 3.54 Cu
412 1 12.39 17.7 5.31 Cu
413 1 14.16 15.93 5.31 Cu
414 1 14.16 17.7 3.54 Cu
415 1 12.39 15.93 7.08 Cu
416 1 12.39 17.7 8.85 Cu
417 1 14.16 15.93 8.85 Cu
418 1 14.16 17.7 7.08 Cu
419 1 12.39 15.93 10.62 Cu
420 1 12.39 17.7 12.39 Cu
421 1 14.16 15.93 12.39 Cu
422 1 14.16 17.7 10.62 Cu
423 1 12.39 15.93 14.16 Cu
424 1 12.39 17.7 15.93 Cu
425 1 14.16 15.93 15.93 Cu
426 1 14.16 17.7 14.16 Cu
427 1 12.39 15.93 17.7 Cu
428 1 12.39 17.7 19.47 Cu
429 1 14.16 15.93 19.47 Cu
430 1 14.16 17.7 17.7 Cu
431 1 12.39 15.93 21.24 Cu
432 1 14.16 17.7 21.24 Cu
433 1 15.93 17.7 1.77 Cu
434 1 17.7 15.93 1.77 Cu
435 1 15.93 15.93 3.54 Cu
436 1 15.93 17.7 5.31 Cu
437 1 17.7 15.93 5.31 Cu
438 1 17.7 17.7 3.54 Cu
439 1 15.93 15.93 7.08 Cu
440 1 15.93 17.7 8.85 Cu
441 1 17.7 15.93 8.85 Cu
442 1 17.7 17.7 7.08 Cu
443 1 15.93 15.93 10.62 Cu
444 1 15.93 17.7 12.39 Cu
445 1 17.7 15.93 12.39 Cu
446 1 17.7 17.7 10.62 Cu
447 1 15.93 15.93 14.16 Cu
448 1 15.93 17.7 15.93 Cu
449 1 17.7 15.93 15.93 Cu
450 1 17.7 17.7 14.16 Cu
451 1 15.93 15.93 17.7 Cu
452 1 15.93 17.7 19.47 Cu
453 1 17.7 15.93 19.47 Cu
454 1 17.7 17.7 17.7 Cu
455 1 15.93 15.93 21.24 Cu
456 1 17.7 17.7 21.24 Cu
457 1 19.47 17.7 1.77 Cu
458 1 19.47 15.93 3.54 Cu
459 1 19.47 17.7 5.31 Cu
460 1 19.47 15.93 7.08 Cu
461 1 19.47 17.7 8.85 Cu
462 1 19.47 15.93 10.62 Cu
463 1 19.47 17.7 12.39 Cu
464 1 19.47 15.93 14.16 Cu
465 1 19.47 17.7 15.93 Cu
466 1 19.47 15.93 17.7 Cu
467 1 19.47 17.7 19.47 Cu
468 1 19.47 15.93 21.24 Cu
469 1 10.62 19.47 1.77 Cu
470 1 10.62 19.47 5.31 Cu
471 1 10.62 21.24 3.54 Cu
472 1 10.62 19.47 8.85 Cu
473 1 10.62 21.24 7.08 Cu
474 1 10.62 19.47 12.39 Cu
475 1 10.62 21.24 10.62 Cu
476 1 10.62 19.47 15.93 Cu
477 1 10.62 21.24 14.16 Cu
478 1 10.62 19.47 19.47 Cu
479 1 10.62 21.24 17.7 Cu
480 1 10.62 21.24 21.24 Cu
481 1 12.39 21.24 1.77 Cu
482 1 14.16 19.47 1.77 Cu
483 1 12.39 19.47 3.54 Cu
484 1 12.39 21.24 5.31 Cu
485 1 14.16 19.47 5.31 Cu
486 1 14.16 21.24 3.54 Cu
487 1 12.39 19.47 7.08 Cu
488 1 12.39 21.24 8.85 Cu
489 1 14.16 19.47 8.85 Cu
490 1 14.16 21.24 7.08 Cu
491 1 12.39 19.47 10.62 Cu
492 1 12.39 21.24 12.39 Cu
493 1 14.16 19.47 12.39 Cu
494 1 14.16 21.24 10.62 Cu
495 1 12.39 19.47 14.16 Cu
496 1 12.39 21.24 15.93 Cu
497 1 14.16 19.47 15.93 Cu
498 1 14.16 21.24 14.16 Cu
499 1 12.39 19.47 17.7 Cu
500 1 12.39 21.24 19.47 Cu
501 1 14.16 19.47 19.47 Cu
502 1 14.16 21.24 17.7 Cu
503 1 12.39 19.47 21.24 Cu
504 1 14.16 21.24 21.24 Cu
505 1 15.93 21.24 1.77 Cu
506 1 17.7 19.47 1.77 Cu
507 1 15.93 19.47 3.54 Cu
508 1 15.93 21.24 5.31 Cu
509 1 17.7 19.47 5.31 Cu
510 1 17.7 21.24 3.54 Cu
511 1 15.93 19.47 7.08 Cu
512 1 15.93 21.24 8.85 Cu
513 1 17.7 19.47 8.85 Cu
514 1 17.7 21.24 7.08 Cu
515 1 15.93 19.47 10.62 Cu
516 1 15.93 21.24 12.39 Cu
517 1 17.7 19.47 12.39 Cu
518 1 17.7 21.24 10.62 Cu
519 1 15.93 19.47 14.16 Cu
520 1 15.93 21.24 15.93 Cu
521 1 17.7 19.47 15.93 Cu
522 1 17.7 21.24 14.16 Cu
523 1 15.93 19.47 17.7 Cu
524 1 15.93 21.24 19.47 Cu
525 1 17.7 19.47 19.47 Cu
526 1 17.7 21.24 17.7 Cu
527 1 15.93 19.47 21.24 Cu
528 1 17.7 21.24 21.24 Cu
529 1 19.47 21.24 1.77 Cu
530 1 19.47 19.47 3.54 Cu
531 1 19.47 21.24 5.31 Cu
532 1 19.47 19.47 7.08 Cu
533 1 19.47 21.24 8.85 Cu
534 1 19.47 19.47 10.62 Cu
535 1 19.47 21.24 12.39 Cu
536 1 19.47 19.47 14.16 Cu
537 1 19.47 21.24 15.93 Cu
538 1 19.47 19.47 17.7 Cu
539 1 19.47 21.24 19.47 Cu
540 1 19.47 19.47 21.24 Cu
541 1 10.62 1.77 1.77 Cu
542 1 10.62 1.77 5.31 Cu
543 1 10.62 3.54 3.54 Cu
544 1 10.62 1.77 8.85 Cu
545 1 10.62 3.54 7.08 Cu
546 1 10.62 1.77 12.39 Cu
547 1 10.62 3.54 10.62 Cu
548 1 10.62 1.77 15.93 Cu
549 1 10.62 3.54 14.16 Cu
550 1 10.62 1.77 19.47 Cu
551 1 10.62 3.54 17.7 Cu
552 1 10.62 3.54 21.24 Cu
553 1 12.39 3.54 1.77 Cu
554 1 14.16 1.77 1.77 Cu
555 1 12.39 1.77 3.54 Cu
556 1 12.39 3.54 5.31 Cu
557 1 14.16 1.77 5.31 Cu
558 1 14.16 3.54 3.54 Cu
559 1 12.39 1.77 7.08 Cu
560 1 12.39 3.54 8.85 Cu
561 1 14.16 1.77 8.85 Cu
562 1 14.16 3.54 7.08 Cu
563 1 12.39 1.77 10.62 Cu
564 1 12.39 3.54 12.39 Cu
565 1 14.16 1.77 12.39 Cu
566 1 14.16 3.54 10.62 Cu
567 1 12.39 1.77 14.16 Cu
568 1 12.39 3.54 15.93 Cu
569 1 14.16 1.77 15.93 Cu
570 1 14.16 3.54 14.16 Cu
571 1 12.39 1.77 17.7 Cu
572 1 12.39 3.54 19.47 Cu
573 1 14.16 1.77 19.47 Cu
574 1 14.16 3.54 17.7 Cu
575 1 12.39 1.77 21.24 Cu
576 1 14.16 3.54 21.24 Cu
577 1 15.93 3.54 1.77 Cu
578 1 17.7 1.77 1.77 Cu
579 1 15.93 1.77 3.54 Cu
580 1 15.93 3.54 5.31 Cu
581 1 17.7 1.77 5.31 Cu
582 1 17.7 3.54 3.54 Cu
583 1 15.93 1.77 7.08 Cu
584 1 15.93 3.54 8.85 Cu
585 1 17.7 1.77 8.85 Cu
586 1 17.7 3.54 7.08 Cu
587 1 15.93 1.77 10.62 Cu
588 1 15.93 3.54 12.39 Cu
589 1 17.7 1.77 12.39 Cu
590 1 17.7 3.54 10.62 Cu
591 1 15.93 1.77 14.16 Cu
592 1 15.93 3.54 15.93 Cu
593 1 17.7 1.77 15.93 Cu
594 1 17.7 3.54 14.16 Cu
595 1 15.93 1.77 17.7 Cu
596 1 15.93 3.54 19.47 Cu
597 1 17.7 1.77 19.47 Cu
598 1 17.7 3.54 17.7 Cu
599 1 15.93 1.77 21.24 Cu
600 1 17.7 3.54 21.24 Cu
601 1 19.47 3.54 1.77 Cu
602 1 19.47 1.77 3.54 Cu
603 1 19.47 3.54 5.31 Cu
604 1 19.47 1.77 7.08 Cu
605 1 19.47 3.54 8.85 Cu
606 1 19.47 1.77 10.62 Cu
607 1 19.47 3.54 12.39 Cu
608 1 19.47 1.77 14.16 Cu
609 1 19.47 3.54 15.93 Cu
610 1 19.47 1.77 17.7 Cu
611 1 19.47 3.54 19.47 Cu
612 1 19.47 1.77 21.24 Cu
613 1 10.62 5.31 1.77 Cu
614 1 10.62 5.31 5.31 Cu
615 1 10.62 7.08 3.54 Cu
616 1 10.62 5.31 8.85 Cu
617 1 10.62 7.08 7.08 Cu
618 1 10.62 5.31 12.39 Cu
619 1 10.62 7.08 10.62 Cu
620 1 10.62 5.31 15.93 Cu
621 1 10.62 7.08 14.16 Cu
622 1 10.62 5.31 19.47 Cu
623 1 10.62 7.08 17.7 Cu
624 1 10.62 7.08 21.24 Cu
625 1 12.39 7.08 1.77 Cu
626 1 14.16 5.31 1.77 Cu
627 1 12.39 5.31 3.54 Cu
628 1 12.39 7.08 5.31 Cu
629 1 14.16 5.31 5.31 Cu
630 1 14.16 7.08 3.54 Cu
631 1 12.39 5.31 7.08 Cu
632 1 12.39 7.08 8.85 Cu
633 1 14.16 5.31 8.85 Cu
634 1 14.16 7.08 7.08 Cu
635 1 12.39 5.31 10.62 Cu
636 1 12.39 7.08 12.39 Cu
637 1 14.16 5.31 12.39 Cu
638 1 14.16 7.08 10.62 Cu
639 1 12.39 5.31 14.16 Cu
640 1 12.39 7.08 15.93 Cu
641 1 14.16 5.31 15.93 Cu
642 1 14.16 7.08 14.16 Cu
643 1 12.39 5.31 17.7 Cu
644 1 12.39 7.08 19.47 Cu
645 1 14.16 5.31 19.47 Cu
646 1 14.16 7.08 17.7 Cu
647 1 12.39 5.31 21.24 Cu
648 1 14.16 7.08 21.24 Cu
649 1 15.93 7.08 1.77 Cu
650 1 17.7 5.31 1.77 Cu
651 1 15.93 5.31 3.54 Cu
652 1 15.93 7.08 5.31 Cu
653 1 17.7 5.31 5.31 Cu
654 1 17.7 7.08 3.54 Cu
655 1 15.93 5.31 7.08 Cu
656 1 15.93 7.08 8.85 Cu
657 1 17.7 5.31 8.85 Cu
658 1 17.7 7.08 7.08 Cu
659 1 15.93 5.31 10.62 Cu
660 1 15.93 7.08 12.39 Cu
661 1 17.7 5.31 12.39 Cu
662 1 17.7 7.08 10.62 Cu
663 1 15.93 5.31 14.16 Cu
664 1 15.93 7.08 15.93 Cu
665 1 17.7 5.31 15.93 Cu
666 1 17.7 7.08 14.16 Cu
667 1 15.93 5.31 17.7 Cu
668 1 15.93 7.08 19.47 Cu
669 1 17.7 5.31 19.47 Cu
670 1 17.7 7.08 17.7 Cu
671 1 15.93 5.31 21.24 Cu
672 1 17.7 7.08 21.24 Cu
673 1 19.47 7.08 1.77 Cu
674 1 19.47 5.31 3.54 Cu
675 1 19.47 7.08 5.31 Cu
676 1 19.47 5.31 7.08 Cu
677 1 19.47 7.08 8.85 Cu
678 1 19.47 5.31 10.62 Cu
679 1 19.47 7.08 12.39 Cu
680 1 19.47 5.31 14.16 Cu
681 1 19.47 7.08 15.93 Cu
682 1 19.47 5.31 17.7 Cu
683 1 19.47 7.08 19.47 Cu
684 1 19.47 5.31 21.24 Cu
685 1 10.62 8.85 1.77 Cu
686 1 10.62 8.85 5.31 Cu
687 1 10.62 10.62 3.54 Cu
688 1 10.62 8.85 8.85 Cu
689 1 10.62 10.62 7.08 Cu
690 1 10.62 8.85 12.39 Cu
691 1 10.62 10.62 10.62 Cu
692 1 10.62 8.85 15.93 Cu
693 1 10.62 10.62 14.16 Cu
694 1 10.62 8.85 19.47 Cu
695 1 10.62 10.62 17.7 Cu
696 1 10.22 10.22 0.4 Cu
697 1 12.39 10.62 1.77 Cu
698 1 14.16 8.85 1.77 Cu
699 1 12.39 8.85 3.54 Cu
700 1 12.39 10.62 5.31 Cu
701 1 14.16 8.85 5.31 Cu
702 1 14.16 10.62 3.54 Cu
703 1 12.39 8.85 7.08 Cu
704 1 12.39 10.62 8.85 Cu
705 1 14.16 8.85 8.85 Cu
706 1 14.16 10.62 7.08 Cu
707 1 12.39 8.85 10.62 Cu
708 1 12.39 10.62 12.39 Cu
709 1 14.16 8.85 12.39 Cu
710 1 14.16 10.62 10.62 Cu
711 1 12.39 8.85 14.16 Cu
712 1 12.39 10.62 15.93 Cu
713 1 14.16 8.85 15.93 Cu
714 1 14.16 10.62 14.16 Cu
715 1 12.39 8.85 17.7 Cu
716 1 12.39 10.62 19.47 Cu
717 1 14.16 8.85 19.47 Cu
718 1 14.16 10.62 17.7 Cu
719 1 12.39 8.85 21.24 Cu
720 1 14.16 10.62 21.24 Cu
721 1 15.93 10.62 1.77 Cu
722 1 17.7 8.85 1.77 Cu
723 1 15.93 8.85 3.54 Cu
724 1 15.93 10.62 5.31 Cu
725 1 17.7 8.85 5.31 Cu
726 1 17.7 10.62 3.54 Cu
727 1 15.93 8.85 7.08 Cu
728 1 15.93 10.62 8.85 Cu
729 1 17.7 8.85 8.85 Cu
730 1 17.7 10.62 7.08 Cu
731 1 15.93 8.85 10.62 Cu
732 1 15.93 10.62 12.39 Cu
733 1 17.7 8.85 12.39 Cu
734 1 17.7 10.62 10.62 Cu
735 1 15.93 8.85 14.16 Cu
736 1 15.93 10.62 15.93 Cu
737 1 17.7 8.85 15.93 Cu
738 1 17.7 10.62 14.16 Cu
739 1 15.93 8.85 17.7 Cu
740 1 15.93 10.62 19.47 Cu
741 1 17.7 8.85 19.47 Cu
742 1 17.7 10.62 17.7 Cu
743 1 15.93 8.85 21.24 Cu
744 1 17.7 10.62 21.24 Cu
745 1 19.47 10.62 1.77 Cu
746 1 19.47 8.85 3.54 Cu
747 1 19.47 10.62 5.31 Cu
748 1 19.47 8.85 7.08 Cu
749 1 19.47 10.62 8.85 Cu
750 1 19.47 8.85 10.62 Cu
751 1 19.47 10.62 12.39 Cu
752 1 19.47 8.85 14.16 Cu
753 1 19.47 10.62 15.93 Cu
754 1 19.47 8.85 17.7 Cu
755 1 19.47 10.62 19.47 Cu
756 1 19.47 8.85 21.24 Cu
757 1 10.62 12.39 1.77 Cu
758 1 10.62 12.39 5.31 Cu
759 1 10.62 12.39 8.85 Cu
760 1 10.62 12.39 12.39 Cu
761 1 10.62 12.39 15.93 Cu
762 1 10.62 12.39 19.47 Cu
763 1 14.16 12.39 1.77 Cu
764 1 12.39 12.39 3.54 Cu
765 1 14.16 12.39 5.31 Cu
766 1 12.39 12.39 7.08 Cu
767 1 14.16 12.39 8.85 Cu
768 1 12.39 12.39 10.62 Cu
769 1 14.16 12.39 12.39 Cu
770 1 12.39 12.39 14.16 Cu
771 1 14.16 12.39 15.93 Cu
772 1 12.39 12.39 17.7 Cu
773 1 14.16 12.39 19.47 Cu
774 1 12.39 12.39 21.24 Cu
775 1 17.7 12.39 1.77 Cu
776 1 15.93 12.39 3.54 Cu
777 1 17.7 12.39 5.31 Cu
778 1 15.93 12.39 7.08 Cu
779 1 17.7 12.39 8.85 Cu
780 1 15.93 12.39 10.62 Cu
781 1 17.7 12.39 12.39 Cu
782 1 15.93 12.39 14.16 Cu
783 1 17.7 12.39 15.93 Cu
784 1 15.93 12.39 17.7 Cu
785 1 17.7 12.39 19.47 Cu
786 1 15.93 12.39 21.24 Cu
787 1 19.47 12.39 3.54 Cu
788 1 19.47 12.39 7.08 Cu
789 1 19.47 12.39 10.62 Cu
790 1 19.47 12.39 14.16 Cu
791 1 19.47 12.39 17.7 Cu
792 1 19.47 12.39 21.24 Cu
