ITEM: TIMESTEP
0
ITEM: NUMBER OF ATOMS
864
ITEM: BOX BOUNDS pp pp pp
    0.000000e+00     4.124000e+01
    0.000000e+00     2.124000e+01
    0.000000e+00     2.124000e+01
ITEM: ATOMS id type x y z typelabel
1 1 11.76999999999999 1.769999999999993 3.539999999999992 Cu
2 1 11.76999999999999 1.769999999999993 7.079999999999991 Cu
3 1 11.76999999999999 1.769999999999993 10.61999999999999 Cu
4 1 11.76999999999999 1.769999999999993 14.15999999999999 Cu
5 1 11.76999999999999 1.769999999999993 17.69999999999999 Cu
6 1 11.76999999999999 1.769999999999993 21.23999999999999 Cu
7 1 13.53999999999999 1.769999999999993 1.769999999999993 Cu
8 1 13.53999999999999 1.769999999999993 5.309999999999992 Cu
9 1 15.30999999999999 1.769999999999993 3.539999999999992 Cu
10 1 13.53999999999999 1.769999999999993 8.849999999999991 Cu
11 1 15.30999999999999 1.769999999999993 7.079999999999991 Cu
12 1 13.53999999999999 1.769999999999993 12.38999999999999 Cu
13 1 15.30999999999999 1.769999999999993 10.61999999999999 Cu
14 1 13.53999999999999 1.769999999999993 15.92999999999999 Cu
15 1 15.30999999999999 1.769999999999993 14.15999999999999 Cu
16 1 13.53999999999999 1.769999999999993 19.46999999999999 Cu
17 1 15.30999999999999 1.769999999999993 17.69999999999999 Cu
18 1 15.30999999999999 1.769999999999993 21.23999999999999 Cu
19 1 17.07999999999999 1.769999999999993 1.769999999999993 Cu
20 1 17.07999999999999 1.769999999999993 5.309999999999992 Cu
21 1 18.84999999999999 1.769999999999993 3.539999999999992 Cu
22 1 17.07999999999999 1.769999999999993 8.849999999999991 Cu
23 1 18.84999999999999 1.769999999999993 7.079999999999991 Cu
24 1 17.07999999999999 1.769999999999993 12.38999999999999 Cu
25 1 18.84999999999999 1.769999999999993 10.61999999999999 Cu
26 1 17.07999999999999 1.769999999999993 15.92999999999999 Cu
27 1 18.84999999999999 1.769999999999993 14.15999999999999 Cu
28 1 17.07999999999999 1.769999999999993 19.46999999999999 Cu
29 1 18.84999999999999 1.769999999999993 17.69999999999999 Cu
30 1 18.84999999999999 1.769999999999993 21.23999999999999 Cu
31 1 20.61999999999999 1.769999999999993 1.769999999999993 Cu
32 1 20.61999999999999 1.769999999999993 5.309999999999992 Cu
33 1 20.61999999999999 1.769999999999993 8.849999999999991 Cu
34 1 20.61999999999999 1.769999999999993 12.38999999999999 Cu
35 1 20.61999999999999 1.769999999999993 15.92999999999999 Cu
36 1 20.61999999999999 1.769999999999993 19.46999999999999 Cu
37 1 11.76999999999999 3.539999999999992 1.769999999999993 Cu
38 1 11.76999999999999 3.539999999999992 5.309999999999992 Cu
39 1 11.76999999999999 5.309999999999992 3.539999999999992 Cu
40 1 11.76999999999999 3.539999999999992 8.849999999999991 Cu
41 1 11.76999999999999 5.309999999999992 7.079999999999991 Cu
42 1 11.76999999999999 3.539999999999992 12.38999999999999 Cu
43 1 11.76999999999999 5.309999999999992 10.61999999999999 Cu
44 1 11.76999999999999 3.539999999999992 15.92999999999999 Cu
45 1 11.76999999999999 5.309999999999992 14.15999999999999 Cu
46 1 11.76999999999999 3.539999999999992 19.46999999999999 Cu
47 1 11.76999999999999 5.309999999999992 17.69999999999999 Cu
48 1 11.76999999999999 5.309999999999992 21.23999999999999 Cu
49 1 13.53999999999999 5.309999999999992 1.769999999999993 Cu
50 1 15.30999999999999 3.539999999999992 1.769999999999993 Cu
51 1 13.53999999999999 3.539999999999992 3.539999999999992 Cu
52 1 13.53999999999999 5.309999999999992 5.309999999999992 Cu
53 1 15.30999999999999 3.539999999999992 5.309999999999992 Cu
54 1 15.30999999999999 5.309999999999992 3.539999999999992 Cu
55 1 13.53999999999999 3.539999999999992 7.079999999999991 Cu
56 1 13.53999999999999 5.309999999999992 8.849999999999991 Cu
57 1 15.30999999999999 3.539999999999992 8.849999999999991 Cu
58 1 15.30999999999999 5.309999999999992 7.079999999999991 Cu
59 1 13.53999999999999 3.539999999999992 10.61999999999999 Cu
60 1 13.53999999999999 5.309999999999992 12.38999999999999 Cu
61 1 15.30999999999999 3.539999999999992 12.38999999999999 Cu
62 1 15.30999999999999 5.309999999999992 10.61999999999999 Cu
63 1 13.53999999999999 3.539999999999992 14.15999999999999 Cu
64 1 13.53999999999999 5.309999999999992 15.92999999999999 Cu
65 1 15.30999999999999 3.539999999999992 15.92999999999999 Cu
66 1 15.30999999999999 5.309999999999992 14.15999999999999 Cu
67 1 13.53999999999999 3.539999999999992 17.69999999999999 Cu
68 1 13.53999999999999 5.309999999999992 19.46999999999999 Cu
69 1 15.30999999999999 3.539999999999992 19.46999999999999 Cu
70 1 15.30999999999999 5.309999999999992 17.69999999999999 Cu
71 1 13.53999999999999 3.539999999999992 21.23999999999999 Cu
72 1 15.30999999999999 5.309999999999992 21.23999999999999 Cu
73 1 17.07999999999999 5.309999999999992 1.769999999999993 Cu
74 1 18.84999999999999 3.539999999999992 1.769999999999993 Cu
75 1 17.07999999999999 3.539999999999992 3.539999999999992 Cu
76 1 17.07999999999999 5.309999999999992 5.309999999999992 Cu
77 1 18.84999999999999 3.539999999999992 5.309999999999992 Cu
78 1 18.84999999999999 5.309999999999992 3.539999999999992 Cu
79 1 17.07999999999999 3.539999999999992 7.079999999999991 Cu
80 1 17.07999999999999 5.309999999999992 8.849999999999991 Cu
81 1 18.84999999999999 3.539999999999992 8.849999999999991 Cu
82 1 18.84999999999999 5.309999999999992 7.079999999999991 Cu
83 1 17.07999999999999 3.539999999999992 10.61999999999999 Cu
84 1 17.07999999999999 5.309999999999992 12.38999999999999 Cu
85 1 18.84999999999999 3.539999999999992 12.38999999999999 Cu
86 1 18.84999999999999 5.309999999999992 10.61999999999999 Cu
87 1 17.07999999999999 3.539999999999992 14.15999999999999 Cu
88 1 17.07999999999999 5.309999999999992 15.92999999999999 Cu
89 1 18.84999999999999 3.539999999999992 15.92999999999999 Cu
90 1 18.84999999999999 5.309999999999992 14.15999999999999 Cu
91 1 17.07999999999999 3.539999999999992 17.69999999999999 Cu
92 1 17.07999999999999 5.309999999999992 19.46999999999999 Cu
93 1 18.84999999999999 3.539999999999992 19.46999999999999 Cu
94 1 18.84999999999999 5.309999999999992 17.69999999999999 Cu
95 1 17.07999999999999 3.539999999999992 21.23999999999999 Cu
96 1 18.84999999999999 5.309999999999992 21.23999999999999 Cu
97 1 20.61999999999999 5.309999999999992 1.769999999999993 Cu
98 1 20.61999999999999 3.539999999999992 3.539999999999992 Cu
99 1 20.61999999999999 5.309999999999992 5.309999999999992 Cu
100 1 20.61999999999999 3.539999999999992 7.079999999999991 Cu
101 1 20.61999999999999 5.309999999999992 8.849999999999991 Cu
102 1 20.61999999999999 3.539999999999992 10.61999999999999 Cu
103 1 20.61999999999999 5.309999999999992 12.38999999999999 Cu
104 1 20.61999999999999 3.539999999999992 14.15999999999999 Cu
105 1 20.61999999999999 5.309999999999992 15.92999999999999 Cu
106 1 20.61999999999999 3.539999999999992 17.69999999999999 Cu
107 1 20.61999999999999 5.309999999999992 19.46999999999999 Cu
108 1 20.61999999999999 3.539999999999992 21.23999999999999 Cu
109 1 11.76999999999999 7.079999999999991 1.769999999999993 Cu
110 1 11.76999999999999 7.079999999999991 5.309999999999992 Cu
111 1 11.76999999999999 8.849999999999991 3.539999999999992 Cu
112 1 11.76999999999999 7.079999999999991 8.849999999999991 Cu
113 1 11.76999999999999 8.849999999999991 7.079999999999991 Cu
114 1 11.76999999999999 7.079999999999991 12.38999999999999 Cu
115 1 11.76999999999999 8.849999999999991 10.61999999999999 Cu
116 1 11.76999999999999 7.079999999999991 15.92999999999999 Cu
117 1 11.76999999999999 8.849999999999991 14.15999999999999 Cu
118 1 11.76999999999999 7.079999999999991 19.46999999999999 Cu
119 1 11.76999999999999 8.849999999999991 17.69999999999999 Cu
120 1 11.76999999999999 8.849999999999991 21.23999999999999 Cu
121 1 13.53999999999999 8.849999999999991 1.769999999999993 Cu
122 1 15.30999999999999 7.079999999999991 1.769999999999993 Cu
123 1 13.53999999999999 7.079999999999991 3.539999999999992 Cu
124 1 13.53999999999999 8.849999999999991 5.309999999999992 Cu
125 1 15.30999999999999 7.079999999999991 5.309999999999992 Cu
126 1 15.30999999999999 8.849999999999991 3.539999999999992 Cu
127 1 13.53999999999999 7.079999999999991 7.079999999999991 Cu
128 1 13.53999999999999 8.849999999999991 8.849999999999991 Cu
129 1 15.30999999999999 7.079999999999991 8.849999999999991 Cu
130 1 15.30999999999999 8.849999999999991 7.079999999999991 Cu
131 1 13.53999999999999 7.079999999999991 10.61999999999999 Cu
132 1 13.53999999999999 8.849999999999991 12.38999999999999 Cu
133 1 15.30999999999999 7.079999999999991 12.38999999999999 Cu
134 1 15.30999999999999 8.849999999999991 10.61999999999999 Cu
135 1 13.53999999999999 7.079999999999991 14.15999999999999 Cu
136 1 13.53999999999999 8.849999999999991 15.92999999999999 Cu
137 1 15.30999999999999 7.079999999999991 15.92999999999999 Cu
138 1 15.30999999999999 8.849999999999991 14.15999999999999 Cu
139 1 13.53999999999999 7.079999999999991 17.69999999999999 Cu
140 1 13.53999999999999 8.849999999999991 19.46999999999999 Cu
141 1 15.30999999999999 7.079999999999991 19.46999999999999 Cu
142 1 15.30999999999999 8.849999999999991 17.69999999999999 Cu
143 1 13.53999999999999 7.079999999999991 21.23999999999999 Cu
144 1 15.30999999999999 8.849999999999991 21.23999999999999 Cu
145 1 17.07999999999999 8.849999999999991 1.769999999999993 Cu
146 1 18.84999999999999 7.079999999999991 1.769999999999993 Cu
147 1 17.07999999999999 7.079999999999991 3.539999999999992 Cu
148 1 17.07999999999999 8.849999999999991 5.309999999999992 Cu
149 1 18.84999999999999 7.079999999999991 5.309999999999992 Cu
150 1 18.84999999999999 8.849999999999991 3.539999999999992 Cu
151 1 17.07999999999999 7.079999999999991 7.079999999999991 Cu
152 1 17.07999999999999 8.849999999999991 8.849999999999991 Cu
153 1 18.84999999999999 7.079999999999991 8.849999999999991 Cu
154 1 18.84999999999999 8.849999999999991 7.079999999999991 Cu
155 1 17.07999999999999 7.079999999999991 10.61999999999999 Cu
156 1 17.07999999999999 8.849999999999991 12.38999999999999 Cu
157 1 18.84999999999999 7.079999999999991 12.38999999999999 Cu
158 1 18.84999999999999 8.849999999999991 10.61999999999999 Cu
159 1 17.07999999999999 7.079999999999991 14.15999999999999 Cu
160 1 17.07999999999999 8.849999999999991 15.92999999999999 Cu
161 1 18.84999999999999 7.079999999999991 15.92999999999999 Cu
162 1 18.84999999999999 8.849999999999991 14.15999999999999 Cu
163 1 17.07999999999999 7.079999999999991 17.69999999999999 Cu
164 1 17.07999999999999 8.849999999999991 19.46999999999999 Cu
165 1 18.84999999999999 7.079999999999991 19.46999999999999 Cu
166 1 18.84999999999999 8.849999999999991 17.69999999999999 Cu
167 1 17.07999999999999 7.079999999999991 21.23999999999999 Cu
168 1 18.84999999999999 8.849999999999991 21.23999999999999 Cu
169 1 20.61999999999999 8.849999999999991 1.769999999999993 Cu
170 1 20.61999999999999 7.079999999999991 3.539999999999992 Cu
171 1 20.61999999999999 8.849999999999991 5.309999999999992 Cu
172 1 20.61999999999999 7.079999999999991 7.079999999999991 Cu
173 1 20.61999999999999 8.849999999999991 8.849999999999991 Cu
174 1 20.61999999999999 7.079999999999991 10.61999999999999 Cu
175 1 20.61999999999999 8.849999999999991 12.38999999999999 Cu
176 1 20.61999999999999 7.079999999999991 14.15999999999999 Cu
177 1 20.61999999999999 8.849999999999991 15.92999999999999 Cu
178 1 20.61999999999999 7.079999999999991 17.69999999999999 Cu
179 1 20.61999999999999 8.849999999999991 19.46999999999999 Cu
180 1 20.61999999999999 7.079999999999991 21.23999999999999 Cu
181 1 11.76999999999999 10.61999999999999 1.769999999999993 Cu
182 1 11.76999999999999 10.61999999999999 5.309999999999992 Cu
183 1 11.76999999999999 12.38999999999999 3.539999999999992 Cu
184 1 11.76999999999999 10.61999999999999 8.849999999999991 Cu
185 1 11.76999999999999 12.38999999999999 7.079999999999991 Cu
186 1 11.76999999999999 10.61999999999999 12.38999999999999 Cu
187 1 11.76999999999999 12.38999999999999 10.61999999999999 Cu
188 1 11.76999999999999 10.61999999999999 15.92999999999999 Cu
189 1 11.76999999999999 12.38999999999999 14.15999999999999 Cu
190 1 11.76999999999999 10.61999999999999 19.46999999999999 Cu
191 1 11.76999999999999 12.38999999999999 17.69999999999999 Cu
192 1 11.76999999999999 12.38999999999999 21.23999999999999 Cu
193 1 13.53999999999999 12.38999999999999 1.769999999999993 Cu
194 1 15.30999999999999 10.61999999999999 1.769999999999993 Cu
195 1 13.53999999999999 10.61999999999999 3.539999999999992 Cu
196 1 13.53999999999999 12.38999999999999 5.309999999999992 Cu
197 1 15.30999999999999 10.61999999999999 5.309999999999992 Cu
198 1 15.30999999999999 12.38999999999999 3.539999999999992 Cu
199 1 13.53999999999999 10.61999999999999 7.079999999999991 Cu
200 1 13.53999999999999 12.38999999999999 8.849999999999991 Cu
201 1 15.30999999999999 10.61999999999999 8.849999999999991 Cu
202 1 15.30999999999999 12.38999999999999 7.079999999999991 Cu
203 1 13.53999999999999 10.61999999999999 10.61999999999999 Cu
204 1 13.53999999999999 12.38999999999999 12.38999999999999 Cu
205 1 15.30999999999999 10.61999999999999 12.38999999999999 Cu
206 1 15.30999999999999 12.38999999999999 10.61999999999999 Cu
207 1 13.53999999999999 10.61999999999999 14.15999999999999 Cu
208 1 13.53999999999999 12.38999999999999 15.92999999999999 Cu
209 1 15.30999999999999 10.61999999999999 15.92999999999999 Cu
210 1 15.30999999999999 12.38999999999999 14.15999999999999 Cu
211 1 13.53999999999999 10.61999999999999 17.69999999999999 Cu
212 1 13.53999999999999 12.38999999999999 19.46999999999999 Cu
213 1 15.30999999999999 10.61999999999999 19.46999999999999 Cu
214 1 15.30999999999999 12.38999999999999 17.69999999999999 Cu
215 1 13.53999999999999 10.61999999999999 21.23999999999999 Cu
216 1 15.30999999999999 12.38999999999999 21.23999999999999 Cu
217 1 17.07999999999999 12.38999999999999 1.769999999999993 Cu
218 1 18.84999999999999 10.61999999999999 1.769999999999993 Cu
219 1 17.07999999999999 10.61999999999999 3.539999999999992 Cu
220 1 17.07999999999999 12.38999999999999 5.309999999999992 Cu
221 1 18.84999999999999 10.61999999999999 5.309999999999992 Cu
222 1 18.84999999999999 12.38999999999999 3.539999999999992 Cu
223 1 17.07999999999999 10.61999999999999 7.079999999999991 Cu
224 1 17.07999999999999 12.38999999999999 8.849999999999991 Cu
225 1 18.84999999999999 10.61999999999999 8.849999999999991 Cu
226 1 18.84999999999999 12.38999999999999 7.079999999999991 Cu
227 1 17.07999999999999 10.61999999999999 10.61999999999999 Cu
228 1 17.07999999999999 12.38999999999999 12.38999999999999 Cu
229 1 18.84999999999999 10.61999999999999 12.38999999999999 Cu
230 1 18.84999999999999 12.38999999999999 10.61999999999999 Cu
231 1 17.07999999999999 10.61999999999999 14.15999999999999 Cu
232 1 17.07999999999999 12.38999999999999 15.92999999999999 Cu
233 1 18.84999999999999 10.61999999999999 15.92999999999999 Cu
234 1 18.84999999999999 12.38999999999999 14.15999999999999 Cu
235 1 17.07999999999999 10.61999999999999 17.69999999999999 Cu
236 1 17.07999999999999 12.38999999999999 19.46999999999999 Cu
237 1 18.84999999999999 10.61999999999999 19.46999999999999 Cu
238 1 18.84999999999999 12.38999999999999 17.69999999999999 Cu
239 1 17.07999999999999 10.61999999999999 21.23999999999999 Cu
240 1 18.84999999999999 12.38999999999999 21.23999999999999 Cu
241 1 20.61999999999999 12.38999999999999 1.769999999999993 Cu
242 1 20.61999999999999 10.61999999999999 3.539999999999992 Cu
243 1 20.61999999999999 12.38999999999999 5.309999999999992 Cu
244 1 20.61999999999999 10.61999999999999 7.079999999999991 Cu
245 1 20.61999999999999 12.38999999999999 8.849999999999991 Cu
246 1 20.61999999999999 10.61999999999999 10.61999999999999 Cu
247 1 20.61999999999999 12.38999999999999 12.38999999999999 Cu
248 1 20.61999999999999 10.61999999999999 14.15999999999999 Cu
249 1 20.61999999999999 12.38999999999999 15.92999999999999 Cu
250 1 20.61999999999999 10.61999999999999 17.69999999999999 Cu
251 1 20.61999999999999 12.38999999999999 19.46999999999999 Cu
252 1 20.61999999999999 10.61999999999999 21.23999999999999 Cu
253 1 11.76999999999999 14.15999999999999 1.769999999999993 Cu
254 1 11.76999999999999 14.15999999999999 5.309999999999992 Cu
255 1 11.76999999999999 15.92999999999999 3.539999999999992 Cu
256 1 11.76999999999999 14.15999999999999 8.849999999999991 Cu
257 1 11.76999999999999 15.92999999999999 7.079999999999991 Cu
258 1 11.76999999999999 14.15999999999999 12.38999999999999 Cu
259 1 11.76999999999999 15.92999999999999 10.61999999999999 Cu
260 1 11.76999999999999 14.15999999999999 15.92999999999999 Cu
261 1 11.76999999999999 15.92999999999999 14.15999999999999 Cu
262 1 11.76999999999999 14.15999999999999 19.46999999999999 Cu
263 1 11.76999999999999 15.92999999999999 17.69999999999999 Cu
264 1 11.76999999999999 15.92999999999999 21.23999999999999 Cu
265 1 13.53999999999999 15.92999999999999 1.769999999999993 Cu
266 1 15.30999999999999 14.15999999999999 1.769999999999993 Cu
267 1 13.53999999999999 14.15999999999999 3.539999999999992 Cu
268 1 13.53999999999999 15.92999999999999 5.309999999999992 Cu
269 1 15.30999999999999 14.15999999999999 5.309999999999992 Cu
270 1 15.30999999999999 15.92999999999999 3.539999999999992 Cu
271 1 13.53999999999999 14.15999999999999 7.079999999999991 Cu
272 1 13.53999999999999 15.92999999999999 8.849999999999991 Cu
273 1 15.30999999999999 14.15999999999999 8.849999999999991 Cu
274 1 15.30999999999999 15.92999999999999 7.079999999999991 Cu
275 1 13.53999999999999 14.15999999999999 10.61999999999999 Cu
276 1 13.53999999999999 15.92999999999999 12.38999999999999 Cu
277 1 15.30999999999999 14.15999999999999 12.38999999999999 Cu
278 1 15.30999999999999 15.92999999999999 10.61999999999999 Cu
279 1 13.53999999999999 14.15999999999999 14.15999999999999 Cu
280 1 13.53999999999999 15.92999999999999 15.92999999999999 Cu
281 1 15.30999999999999 14.15999999999999 15.92999999999999 Cu
282 1 15.30999999999999 15.92999999999999 14.15999999999999 Cu
283 1 13.53999999999999 14.15999999999999 17.69999999999999 Cu
284 1 13.53999999999999 15.92999999999999 19.46999999999999 Cu
285 1 15.30999999999999 14.15999999999999 19.46999999999999 Cu
286 1 15.30999999999999 15.92999999999999 17.69999999999999 Cu
287 1 13.53999999999999 14.15999999999999 21.23999999999999 Cu
288 1 15.30999999999999 15.92999999999999 21.23999999999999 Cu
289 1 17.07999999999999 15.92999999999999 1.769999999999993 Cu
290 1 18.84999999999999 14.15999999999999 1.769999999999993 Cu
291 1 17.07999999999999 14.15999999999999 3.539999999999992 Cu
292 1 17.07999999999999 15.92999999999999 5.309999999999992 Cu
293 1 18.84999999999999 14.15999999999999 5.309999999999992 Cu
294 1 18.84999999999999 15.92999999999999 3.539999999999992 Cu
295 1 17.07999999999999 14.15999999999999 7.079999999999991 Cu
296 1 17.07999999999999 15.92999999999999 8.849999999999991 Cu
297 1 18.84999999999999 14.15999999999999 8.849999999999991 Cu
298 1 18.84999999999999 15.92999999999999 7.079999999999991 Cu
299 1 17.07999999999999 14.15999999999999 10.61999999999999 Cu
300 1 17.07999999999999 15.92999999999999 12.38999999999999 Cu
301 1 18.84999999999999 14.15999999999999 12.38999999999999 Cu
302 1 18.84999999999999 15.92999999999999 10.61999999999999 Cu
303 1 17.07999999999999 14.15999999999999 14.15999999999999 Cu
304 1 17.07999999999999 15.92999999999999 15.92999999999999 Cu
305 1 18.84999999999999 14.15999999999999 15.92999999999999 Cu
306 1 18.84999999999999 15.92999999999999 14.15999999999999 Cu
307 1 17.07999999999999 14.15999999999999 17.69999999999999 Cu
308 1 17.07999999999999 15.92999999999999 19.46999999999999 Cu
309 1 18.84999999999999 14.15999999999999 19.46999999999999 Cu
310 1 18.84999999999999 15.92999999999999 17.69999999999999 Cu
311 1 17.07999999999999 14.15999999999999 21.23999999999999 Cu
312 1 18.84999999999999 15.92999999999999 21.23999999999999 Cu
313 1 20.61999999999999 15.92999999999999 1.769999999999993 Cu
314 1 20.61999999999999 14.15999999999999 3.539999999999992 Cu
315 1 20.61999999999999 15.92999999999999 5.309999999999992 Cu
316 1 20.61999999999999 14.15999999999999 7.079999999999991 Cu
317 1 20.61999999999999 15.92999999999999 8.849999999999991 Cu
318 1 20.61999999999999 14.15999999999999 10.61999999999999 Cu
319 1 20.61999999999999 15.92999999999999 12.38999999999999 Cu
320 1 20.61999999999999 14.15999999999999 14.15999999999999 Cu
321 1 20.61999999999999 15.92999999999999 15.92999999999999 Cu
322 1 20.61999999999999 14.15999999999999 17.69999999999999 Cu
323 1 20.61999999999999 15.92999999999999 19.46999999999999 Cu
324 1 20.61999999999999 14.15999999999999 21.23999999999999 Cu
325 1 11.76999999999999 17.69999999999999 1.769999999999993 Cu
326 1 11.76999999999999 17.69999999999999 5.309999999999992 Cu
327 1 11.76999999999999 19.46999999999999 3.539999999999992 Cu
328 1 11.76999999999999 17.69999999999999 8.849999999999991 Cu
329 1 11.76999999999999 19.46999999999999 7.079999999999991 Cu
330 1 11.76999999999999 17.69999999999999 12.38999999999999 Cu
331 1 11.76999999999999 19.46999999999999 10.61999999999999 Cu
332 1 11.76999999999999 17.69999999999999 15.92999999999999 Cu
333 1 11.76999999999999 19.46999999999999 14.15999999999999 Cu
334 1 11.76999999999999 17.69999999999999 19.46999999999999 Cu
335 1 11.76999999999999 19.46999999999999 17.69999999999999 Cu
336 1 11.76999999999999 19.46999999999999 21.23999999999999 Cu
337 1 13.53999999999999 19.46999999999999 1.769999999999993 Cu
338 1 15.30999999999999 17.69999999999999 1.769999999999993 Cu
339 1 13.53999999999999 17.69999999999999 3.539999999999992 Cu
340 1 13.53999999999999 19.46999999999999 5.309999999999992 Cu
341 1 15.30999999999999 17.69999999999999 5.309999999999992 Cu
342 1 15.30999999999999 19.46999999999999 3.539999999999992 Cu
343 1 13.53999999999999 17.69999999999999 7.079999999999991 Cu
344 1 13.53999999999999 19.46999999999999 8.849999999999991 Cu
345 1 15.30999999999999 17.69999999999999 8.849999999999991 Cu
346 1 15.30999999999999 19.46999999999999 7.079999999999991 Cu
347 1 13.53999999999999 17.69999999999999 10.61999999999999 Cu
348 1 13.53999999999999 19.46999999999999 12.38999999999999 Cu
349 1 15.30999999999999 17.69999999999999 12.38999999999999 Cu
350 1 15.30999999999999 19.46999999999999 10.61999999999999 Cu
351 1 13.53999999999999 17.69999999999999 14.15999999999999 Cu
352 1 13.53999999999999 19.46999999999999 15.92999999999999 Cu
353 1 15.30999999999999 17.69999999999999 15.92999999999999 Cu
354 1 15.30999999999999 19.46999999999999 14.15999999999999 Cu
355 1 13.53999999999999 17.69999999999999 17.69999999999999 Cu
356 1 13.53999999999999 19.46999999999999 19.46999999999999 Cu
357 1 15.30999999999999 17.69999999999999 19.46999999999999 Cu
358 1 15.30999999999999 19.46999999999999 17.69999999999999 Cu
359 1 13.53999999999999 17.69999999999999 21.23999999999999 Cu
360 1 15.30999999999999 19.46999999999999 21.23999999999999 Cu
361 1 17.07999999999999 19.46999999999999 1.769999999999993 Cu
362 1 18.84999999999999 17.69999999999999 1.769999999999993 Cu
363 1 17.07999999999999 17.69999999999999 3.539999999999992 Cu
364 1 17.07999999999999 19.46999999999999 5.309999999999992 Cu
365 1 18.84999999999999 17.69999999999999 5.309999999999992 Cu
366 1 18.84999999999999 19.46999999999999 3.539999999999992 Cu
367 1 17.07999999999999 17.69999999999999 7.079999999999991 Cu
368 1 17.07999999999999 19.46999999999999 8.849999999999991 Cu
369 1 18.84999999999999 17.69999999999999 8.849999999999991 Cu
370 1 18.84999999999999 19.46999999999999 7.079999999999991 Cu
371 1 17.07999999999999 17.69999999999999 10.61999999999999 Cu
372 1 17.07999999999999 19.46999999999999 12.38999999999999 Cu
373 1 18.84999999999999 17.69999999999999 12.38999999999999 Cu
374 1 18.84999999999999 19.46999999999999 10.61999999999999 Cu
375 1 17.07999999999999 17.69999999999999 14.15999999999999 Cu
376 1 17.07999999999999 19.46999999999999 15.92999999999999 Cu
377 1 18.84999999999999 17.69999999999999 15.92999999999999 Cu
378 1 18.84999999999999 19.46999999999999 14.15999999999999 Cu
379 1 17.07999999999999 17.69999999999999 17.69999999999999 Cu
380 1 17.07999999999999 19.46999999999999 19.46999999999999 Cu
381 1 18.84999999999999 17.69999999999999 19.46999999999999 Cu
382 1 18.84999999999999 19.46999999999999 17.69999999999999 Cu
383 1 17.07999999999999 17.69999999999999 21.23999999999999 Cu
384 1 18.84999999999999 19.46999999999999 21.23999999999999 Cu
385 1 20.61999999999999 19.46999999999999 1.769999999999993 Cu
386 1 20.61999999999999 17.69999999999999 3.539999999999992 Cu
387 1 20.61999999999999 19.46999999999999 5.309999999999992 Cu
388 1 20.61999999999999 17.69999999999999 7.079999999999991 Cu
389 1 20.61999999999999 19.46999999999999 8.849999999999991 Cu
390 1 20.61999999999999 17.69999999999999 10.61999999999999 Cu
391 1 20.61999999999999 19.46999999999999 12.38999999999999 Cu
392 1 20.61999999999999 17.69999999999999 14.15999999999999 Cu
393 1 20.61999999999999 19.46999999999999 15.92999999999999 Cu
394 1 20.61999999999999 17.69999999999999 17.69999999999999 Cu
395 1 20.61999999999999 19.46999999999999 19.46999999999999 Cu
396 1 20.61999999999999 17.69999999999999 21.23999999999999 Cu
397 1 11.76999999999999 21.23999999999999 1.769999999999993 Cu
398 1 11.76999999999999 21.23999999999999 5.309999999999992 Cu
399 1 11.76999999999999 21.23999999999999 8.849999999999991 Cu
400 1 11.76999999999999 21.23999999999999 12.38999999999999 Cu
401 1 11.76999999999999 21.23999999999999 15.92999999999999 Cu
402 1 11.76999999999999 21.23999999999999 19.46999999999999 Cu
403 1 15.30999999999999 21.23999999999999 1.769999999999993 Cu
404 1 13.53999999999999 21.23999999999999 3.539999999999992 Cu
405 1 15.30999999999999 21.23999999999999 5.309999999999992 Cu
406 1 13.53999999999999 21.23999999999999 7.079999999999991 Cu
407 1 15.30999999999999 21.23999999999999 8.849999999999991 Cu
408 1 13.53999999999999 21.23999999999999 10.61999999999999 Cu
409 1 15.30999999999999 21.23999999999999 12.38999999999999 Cu
410 1 13.53999999999999 21.23999999999999 14.15999999999999 Cu
411 1 15.30999999999999 21.23999999999999 15.92999999999999 Cu
412 1 13.53999999999999 21.23999999999999 17.69999999999999 Cu
413 1 15.30999999999999 21.23999999999999 19.46999999999999 Cu
414 1 13.53999999999999 21.23999999999999 21.23999999999999 Cu
415 1 18.84999999999999 21.23999999999999 1.769999999999993 Cu
416 1 17.07999999999999 21.23999999999999 3.539999999999992 Cu
417 1 18.84999999999999 21.23999999999999 5.309999999999992 Cu
418 1 17.07999999999999 21.23999999999999 7.079999999999991 Cu
419 1 18.84999999999999 21.23999999999999 8.849999999999991 Cu
420 1 17.07999999999999 21.23999999999999 10.61999999999999 Cu
421 1 18.84999999999999 21.23999999999999 12.38999999999999 Cu
422 1 17.07999999999999 21.23999999999999 14.15999999999999 Cu
423 1 18.84999999999999 21.23999999999999 15.92999999999999 Cu
424 1 17.07999999999999 21.23999999999999 17.69999999999999 Cu
425 1 18.84999999999999 21.23999999999999 19.46999999999999 Cu
426 1 17.07999999999999 21.23999999999999 21.23999999999999 Cu
427 1 20.61999999999999 21.23999999999999 3.539999999999992 Cu
428 1 20.61999999999999 21.23999999999999 7.079999999999991 Cu
429 1 20.61999999999999 21.23999999999999 10.61999999999999 Cu
430 1 20.61999999999999 21.23999999999999 14.15999999999999 Cu
431 1 20.61999999999999 21.23999999999999 17.69999999999999 Cu
432 1 20.61999999999999 21.23999999999999 21.23999999999999 Cu
433 1 22.38999999999998 1.769999999999993 3.539999999999992 Cu
434 1 22.38999999999998 1.769999999999993 7.079999999999991 Cu
435 1 22.38999999999998 1.769999999999993 10.61999999999999 Cu
436 1 22.38999999999998 1.769999999999993 14.15999999999999 Cu
437 1 22.38999999999998 1.769999999999993 17.69999999999999 Cu
438 1 22.38999999999998 1.769999999999993 21.23999999999999 Cu
439 1 24.15999999999998 1.769999999999993 1.769999999999993 Cu
440 1 24.15999999999998 1.769999999999993 5.309999999999992 Cu
441 1 25.92999999999998 1.769999999999993 3.539999999999992 Cu
442 1 24.15999999999998 1.769999999999993 8.849999999999991 Cu
443 1 25.92999999999998 1.769999999999993 7.079999999999991 Cu
444 1 24.15999999999998 1.769999999999993 12.38999999999999 Cu
445 1 25.92999999999998 1.769999999999993 10.61999999999999 Cu
446 1 24.15999999999998 1.769999999999993 15.92999999999999 Cu
447 1 25.92999999999998 1.769999999999993 14.15999999999999 Cu
448 1 24.15999999999998 1.769999999999993 19.46999999999999 Cu
449 1 25.92999999999998 1.769999999999993 17.69999999999999 Cu
450 1 25.92999999999998 1.769999999999993 21.23999999999999 Cu
451 1 27.69999999999998 1.769999999999993 1.769999999999993 Cu
452 1 27.69999999999998 1.769999999999993 5.309999999999992 Cu
453 1 29.46999999999998 1.769999999999993 3.539999999999992 Cu
454 1 27.69999999999998 1.769999999999993 8.849999999999991 Cu
455 1 29.46999999999998 1.769999999999993 7.079999999999991 Cu
456 1 27.69999999999998 1.769999999999993 12.38999999999999 Cu
457 1 29.46999999999998 1.769999999999993 10.61999999999999 Cu
458 1 27.69999999999998 1.769999999999993 15.92999999999999 Cu
459 1 29.46999999999998 1.769999999999993 14.15999999999999 Cu
460 1 27.69999999999998 1.769999999999993 19.46999999999999 Cu
461 1 29.46999999999998 1.769999999999993 17.69999999999999 Cu
462 1 29.46999999999998 1.769999999999993 21.23999999999999 Cu
463 1 31.23999999999998 1.769999999999993 1.769999999999993 Cu
464 1 31.23999999999998 1.769999999999993 5.309999999999992 Cu
465 1 31.23999999999998 1.769999999999993 8.849999999999991 Cu
466 1 31.23999999999998 1.769999999999993 12.38999999999999 Cu
467 1 31.23999999999998 1.769999999999993 15.92999999999999 Cu
468 1 31.23999999999998 1.769999999999993 19.46999999999999 Cu
469 1 22.38999999999998 3.539999999999992 1.769999999999993 Cu
470 1 22.38999999999998 3.539999999999992 5.309999999999992 Cu
471 1 22.38999999999998 5.309999999999992 3.539999999999992 Cu
472 1 22.38999999999998 3.539999999999992 8.849999999999991 Cu
473 1 22.38999999999998 5.309999999999992 7.079999999999991 Cu
474 1 22.38999999999998 3.539999999999992 12.38999999999999 Cu