ITEM: TIMESTEP
0
ITEM: NUMBER OF ATOMS
38564
ITEM: BOX BOUNDS pp pp pp
-1.0000000000000000e+01 1.3000000000000000e+02
0.0000000000000000e+00 2.0000000000000000e+01
0.0000000000000000e+00 4.0000000000000000e+00
ITEM: ATOMS id type x y
1 1 0 0
2 1 0 0.5
3 1 0.5 0
4 1 0.5 0.5
5 1 0 0
6 1 0 0.5
7 1 0.5 0
8 1 0.5 0.5
9 1 0 0
10 1 0 0.5
11 1 0.5 0
12 1 0.5 0.5
13 1 0 0
14 1 0 0.5
15 1 0.5 0
16 1 0.5 0.5
17 1 1 0
18 1 1 0.5
19 1 1.5 0
20 1 1.5 0.5
21 1 1 0
22 1 1 0.5
23 1 1.5 0
24 1 1.5 0.5
25 1 1 0
26 1 1 0.5
27 1 1.5 0
28 1 1.5 0.5
29 1 1 0
30 1 1 0.5
31 1 1.5 0
32 1 1.5 0.5
33 1 2 0
34 1 2 0.5
35 1 2.5 0
36 1 2.5 0.5
37 1 2 0
38 1 2 0.5
39 1 2.5 0
40 1 2.5 0.5
41 1 2 0
42 1 2 0.5
43 1 2.5 0
44 1 2.5 0.5
45 1 2 0
46 1 2 0.5
47 1 2.5 0
48 1 2.5 0.5
49 1 3 0
50 1 3 0.5
51 1 3.5 0
52 1 3.5 0.5
53 1 3 0
54 1 3 0.5
55 1 3.5 0
56 1 3.5 0.5
57 1 3 0
58 1 3 0.5
59 1 3.5 0
60 1 3.5 0.5
61 1 3 0
62 1 3 0.5
63 1 3.5 0
64 1 3.5 0.5
65 1 4 0
66 1 4 0.5
67 1 4.5 0
68 1 4.5 0.5
69 1 4 0
70 1 4 0.5
71 1 4.5 0
72 1 4.5 0.5
73 1 4 0
74 1 4 0.5
75 1 4.5 0
76 1 4.5 0.5
77 1 4 0
78 1 4 0.5
79 1 4.5 0
80 1 4.5 0.5
81 1 5 0
82 1 5 0.5
83 1 5.5 0
84 1 5.5 0.5
85 1 5 0
86 1 5 0.5
87 1 5.5 0
88 1 5.5 0.5
89 1 5 0
90 1 5 0.5
91 1 5.5 0
92 1 5.5 0.5
93 1 5 0
94 1 5 0.5
95 1 5.5 0
96 1 5.5 0.5
97 1 6 0
98 1 6 0.5
99 1 6.5 0
100 1 6.5 0.5
101 1 6 0
102 1 6 0.5
103 1 6.5 0
104 1 6.5 0.5
105 1 6 0
106 1 6 0.5
107 1 6.5 0
108 1 6.5 0.5
109 1 6 0
110 1 6 0.5
111 1 6.5 0
112 1 6.5 0.5
113 1 7 0
114 1 7 0.5
115 1 7.5 0
116 1 7.5 0.5
117 1 7 0
118 1 7 0.5
119 1 7.5 0
120 1 7.5 0.5
121 1 7 0
122 1 7 0.5
123 1 7.5 0
124 1 7.5 0.5
125 1 7 0
126 1 7 0.5
127 1 7.5 0
128 1 7.5 0.5
129 1 8 0
130 1 8 0.5
131 1 8.5 0
132 1 8.5 0.5
133 1 8 0
134 1 8 0.5
135 1 8.5 0
136 1 8.5 0.5
137 1 8 0
138 1 8 0.5
139 1 8.5 0
140 1 8.5 0.5
141 1 8 0
142 1 8 0.5
143 1 8.5 0
144 1 8.5 0.5
145 1 9 0
146 1 9 0.5
147 1 9.5 0
148 1 9.5 0.5
149 1 9 0
150 1 9 0.5
151 1 9.5 0
152 1 9.5 0.5
153 1 9 0
154 1 9 0.5
155 1 9.5 0
156 1 9.5 0.5
157 1 9 0
158 1 9 0.5
159 1 9.5 0
160 1 9.5 0.5
161 1 10 0
162 1 10 0.5
163 1 10.5 0
164 1 10.5 0.5
165 1 10 0
166 1 10 0.5
167 1 10.5 0
168 1 10.5 0.5
169 1 10 0
170 1 10 0.5
171 1 10.5 0
172 1 10.5 0.5
173 1 10 0
174 1 10 0.5
175 1 10.5 0
176 1 10.5 0.5
177 1 11 0
178 1 11 0.5
179 1 11.5 0
180 1 11.5 0.5
181 1 11 0
182 1 11 0.5
183 1 11.5 0
184 1 11.5 0.5
185 1 11 0
186 1 11 0.5
187 1 11.5 0
188 1 11.5 0.5
189 1 11 0
190 1 11 0.5
191 1 11.5 0
192 1 11.5 0.5
193 1 12 0
194 1 12 0.5
195 1 12.5 0
196 1 12.5 0.5
197 1 12 0
198 1 12 0.5
199 1 12.5 0
200 1 12.5 0.5
201 1 12 0
202 1 12 0.5
203 1 12.5 0
204 1 12.5 0.5
205 1 12 0
206 1 12 0.5
207 1 12.5 0
208 1 12.5 0.5
209 1 13 0
210 1 13 0.5
211 1 13.5 0
212 1 13.5 0.5
213 1 13 0
214 1 13 0.5
215 1 13.5 0
216 1 13.5 0.5
217 1 13 0
218 1 13 0.5
219 1 13.5 0
220 1 13.5 0.5
221 1 13 0
222 1 13 0.5
223 1 13.5 0
224 1 13.5 0.5
225 1 14 0
226 1 14 0.5
227 1 14.5 0
228 1 14.5 0.5
229 1 14 0
230 1 14 0.5
231 1 14.5 0
232 1 14.5 0.5
233 1 14 0
234 1 14 0.5
235 1 14.5 0
236 1 14.5 0.5
237 1 14 0
238 1 14 0.5
239 1 14.5 0
240 1 14.5 0.5
241 1 15 0
242 1 15 0.5
243 1 15.5 0
244 1 15.5 0.5
245 1 15 0
246 1 15 0.5
247 1 15.5 0
248 1 15.5 0.5
249 1 15 0
250 1 15 0.5
251 1 15.5 0
252 1 15.5 0.5
253 1 15 0
254 1 15 0.5
255 1 15.5 0
256 1 15.5 0.5
257 1 16 0
258 1 16 0.5
259 1 16.5 0
260 1 16.5 0.5
261 1 16 0
262 1 16 0.5
263 1 16.5 0
264 1 16.5 0.5
265 1 16 0
266 1 16 0.5
267 1 16.5 0
268 1 16.5 0.5
269 1 16 0
270 1 16 0.5
271 1 16.5 0
272 1 16.5 0.5
273 1 17 0
274 1 17 0.5
275 1 17.5 0
276 1 17.5 0.5
277 1 17 0
278 1 17 0.5
279 1 17.5 0
280 1 17.5 0.5
281 1 17 0
282 1 17 0.5
283 1 17.5 0
284 1 17.5 0.5
285 1 17 0
286 1 17 0.5
287 1 17.5 0
288 1 17.5 0.5
289 1 18 0
290 1 18 0.5
291 1 18.5 0
292 1 18.5 0.5
293 1 18 0
294 1 18 0.5
295 1 18.5 0
296 1 18.5 0.5
297 1 18 0
298 1 18 0.5
299 1 18.5 0
300 1 18.5 0.5
301 1 18 0
302 1 18 0.5
303 1 18.5 0
304 1 18.5 0.5
305 1 19 0
306 1 19 0.5
307 1 19.5 0
308 1 19.5 0.5
309 1 19 0
310 1 19 0.5
311 1 19.5 0
312 1 19.5 0.5
313 1 19 0
314 1 19 0.5
315 1 19.5 0
316 1 19.5 0.5
317 1 19 0
318 1 19 0.5
319 1 19.5 0
320 1 19.5 0.5
321 1 20 0
322 1 20 0.5
323 1 20.5 0
324 1 20.5 0.5
325 1 20 0
326 1 20 0.5
327 1 20.5 0
328 1 20.5 0.5
329 1 20 0
330 1 20 0.5
331 1 20.5 0
332 1 20.5 0.5
333 1 20 0
334 1 20 0.5
335 1 20.5 0
336 1 20.5 0.5
337 1 21 0
338 1 21 0.5
339 1 21.5 0
340 1 21.5 0.5
341 1 21 0
342 1 21 0.5
343 1 21.5 0
344 1 21.5 0.5
345 1 21 0
346 1 21 0.5
347 1 21.5 0
348 1 21.5 0.5
349 1 21 0
350 1 21 0.5
351 1 21.5 0
352 1 21.5 0.5
353 1 22 0
354 1 22 0.5
355 1 22.5 0
356 1 22.5 0.5
357 1 22 0
358 1 22 0.5
359 1 22.5 0
360 1 22.5 0.5
361 1 22 0
362 1 22 0.5
363 1 22.5 0
364 1 22.5 0.5
365 1 22 0
366 1 22 0.5
367 1 22.5 0
368 1 22.5 0.5
369 1 23 0
370 1 23 0.5
371 1 23.5 0
372 1 23.5 0.5
373 1 23 0
374 1 23 0.5
375 1 23.5 0
376 1 23.5 0.5
377 1 23 0
378 1 23 0.5
379 1 23.5 0
380 1 23.5 0.5
381 1 23 0
382 1 23 0.5
383 1 23.5 0
384 1 23.5 0.5
385 1 24 0
386 1 24 0.5
387 1 24.5 0
388 1 24.5 0.5
389 1 24 0
390 1 24 0.5
391 1 24.5 0
392 1 24.5 0.5
393 1 24 0
394 1 24 0.5
395 1 24.5 0
396 1 24.5 0.5
397 1 24 0
398 1 24 0.5
399 1 24.5 0
400 1 24.5 0.5
401 1 25 0
402 1 25 0.5
403 1 25.5 0
404 1 25.5 0.5
405 1 25 0
406 1 25 0.5
407 1 25.5 0
408 1 25.5 0.5
409 1 25 0
410 1 25 0.5
411 1 25.5 0
412 1 25.5 0.5
413 1 25 0
414 1 25 0.5
415 1 25.5 0
416 1 25.5 0.5
417 1 26 0
418 1 26 0.5
419 1 26.5 0
420 1 26.5 0.5
421 1 26 0
422 1 26 0.5
423 1 26.5 0
424 1 26.5 0.5
425 1 26 0
426 1 26 0.5
427 1 26.5 0
428 1 26.5 0.5
429 1 26 0
430 1 26 0.5
431 1 26.5 0
432 1 26.5 0.5
433 1 27 0
434 1 27 0.5
435 1 27.5 0
436 1 27.5 0.5
437 1 27 0
438 1 27 0.5
439 1 27.5 0
440 1 27.5 0.5
441 1 27 0
442 1 27 0.5
443 1 27.5 0
444 1 27.5 0.5
445 1 27 0
446 1 27 0.5
447 1 27.5 0
448 1 27.5 0.5
449 1 28 0
450 1 28 0.5
451 1 28.5 0
452 1 28.5 0.5
453 1 28 0
454 1 28 0.5
455 1 28.5 0
456 1 28.5 0.5
457 1 28 0
458 1 28 0.5
459 1 28.5 0
460 1 28.5 0.5
461 1 28 0
462 1 28 0.5
463 1 28.5 0
464 1 28.5 0.5
465 1 29 0
466 1 29 0.5
467 1 29.5 0
468 1 29.5 0.5
469 1 29 0
470 1 29 0.5
471 1 29.5 0
472 1 29.5 0.5
473 1 29 0
474 1 29 0.5
475 1 29.5 0
476 1 29.5 0.5
477 1 29 0
478 1 29 0.5
479 1 29.5 0
480 1 29.5 0.5
481 1 30 0
482 1 30 0.5
483 1 30.5 0
484 1 30.5 0.5
485 1 30 0
486 1 30 0.5
487 1 30.5 0
488 1 30.5 0.5
489 1 30 0
490 1 30 0.5
491 1 30.5 0
492 1 30.5 0.5
493 1 30 0
494 1 30 0.5
495 1 30.5 0
496 1 30.5 0.5
497 1 31 0
498 1 31 0.5
499 1 31.5 0
500 1 31.5 0.5
501 1 31 0
502 1 31 0.5
503 1 31.5 0
504 1 31.5 0.5
505 1 31 0
506 1 31 0.5
507 1 31.5 0
508 1 31.5 0.5
509 1 31 0
510 1 31 0.5
511 1 31.5 0
512 1 31.5 0.5
513 1 32 0
514 1 32 0.5
515 1 32.5 0
516 1 32.5 0.5
517 1 32 0
518 1 32 0.5
519 1 32.5 0
520 1 32.5 0.5
521 1 32 0
522 1 32 0.5
523 1 32.5 0
524 1 32.5 0.5
525 1 32 0
526 1 32 0.5
527 1 32.5 0
528 1 32.5 0.5
529 1 33 0
530 1 33 0.5
531 1 33.5 0
532 1 33.5 0.5
533 1 33 0
534 1 33 0.5
535 1 33.5 0
536 1 33.5 0.5
537 1 33 0
538 1 33 0.5
539 1 33.5 0
540 1 33.5 0.5
541 1 33 0
542 1 33 0.5
543 1 33.5 0
544 1 33.5 0.5
545 1 34 0
546 1 34 0.5
547 1 34.5 0
548 1 34.5 0.5
549 1 34 0
550 1 34 0.5
551 1 34.5 0
552 1 34.5 0.5
553 1 34 0
554 1 34 0.5
555 1 34.5 0
556 1 34.5 0.5
557 1 34 0
558 1 34 0.5
559 1 34.5 0
560 1 34.5 0.5
561 1 35 0
562 1 35 0.5
563 1 35.5 0
564 1 35.5 0.5
565 1 35 0
566 1 35 0.5
567 1 35.5 0
568 1 35.5 0.5
569 1 35 0
570 1 35 0.5
571 1 35.5 0
572 1 35.5 0.5
573 1 35 0
574 1 35 0.5
575 1 35.5 0
576 1 35.5 0.5
577 1 36 0
578 1 36 0.5
579 1 36.5 0
580 1 36.5 0.5
581 1 36 0
582 1 36 0.5
583 1 36.5 0
584 1 36.5 0.5
585 1 36 0
586 1 36 0.5
587 1 36.5 0
588 1 36.5 0.5
589 1 36 0
590 1 36 0.5
591 1 36.5 0
592 1 36.5 0.5
593 1 37 0
594 1 37 0.5
595 1 37.5 0
596 1 37.5 0.5
597 1 37 0
598 1 37 0.5
599 1 37.5 0
600 1 37.5 0.5
601 1 37 0
602 1 37 0.5
603 1 37.5 0
604 1 37.5 0.5
605 1 37 0
606 1 37 0.5
607 1 37.5 0
608 1 37.5 0.5
609 1 38 0
610 1 38 0.5
611 1 38.5 0
612 1 38.5 0.5
613 1 38 0
614 1 38 0.5
615 1 38.5 0
616 1 38.5 0.5
617 1 38 0
618 1 38 0.5
619 1 38.5 0
620 1 38.5 0.5
621 1 38 0
622 1 38 0.5
623 1 38.5 0
624 1 38.5 0.5
625 1 39 0
626 1 39 0.5
627 1 39.5 0
628 1 39.5 0.5
629 1 39 0
630 1 39 0.5
631 1 39.5 0
632 1 39.5 0.5
633 1 39 0
634 1 39 0.5
635 1 39.5 0
636 1 39.5 0.5
637 1 39 0
638 1 39 0.5
639 1 39.5 0
640 1 39.5 0.5
641 1 40 0
642 1 40 0.5
643 1 40.5 0
644 1 40.5 0.5
645 1 40 0
646 1 40 0.5
647 1 40.5 0
648 1 40.5 0.5
649 1 40 0
650 1 40 0.5
651 1 40.5 0
652 1 40.5 0.5
653 1 40 0
654 1 40 0.5
655 1 40.5 0
656 1 40.5 0.5
657 1 41 0
658 1 41 0.5
659 1 41.5 0
660 1 41.5 0.5
661 1 41 0
662 1 41 0.5
663 1 41.5 0
664 1 41.5 0.5
665 1 41 0
666 1 41 0.5
667 1 41.5 0
668 1 41.5 0.5
669 1 41 0
670 1 41 0.5
671 1 41.5 0
672 1 41.5 0.5
673 1 42 0
674 1 42 0.5
675 1 42.5 0
676 1 42.5 0.5
677 1 42 0
678 1 42 0.5
679 1 42.5 0
680 1 42.5 0.5
681 1 42 0
682 1 42 0.5
683 1 42.5 0
684 1 42.5 0.5
685 1 42 0
686 1 42 0.5
687 1 42.5 0
688 1 42.5 0.5
689 1 43 0
690 1 43 0.5
691 1 43.5 0
692 1 43.5 0.5
693 1 43 0
694 1 43 0.5
695 1 43.5 0
696 1 43.5 0.5
697 1 43 0
698 1 43 0.5
699 1 43.5 0
700 1 43.5 0.5
701 1 43 0
702 1 43 0.5
703 1 43.5 0
704 1 43.5 0.5
705 1 44 0
706 1 44 0.5
707 1 44.5 0
708 1 44.5 0.5
709 1 44 0
710 1 44 0.5
711 1 44.5 0
712 1 44.5 0.5
713 1 44 0
714 1 44 0.5
715 1 44.5 0
716 1 44.5 0.5
717 1 44 0
718 1 44 0.5
719 1 44.5 0
720 1 44.5 0.5
721 1 45 0
722 1 45 0.5
723 1 45.5 0
724 1 45.5 0.5
725 1 45 0
726 1 45 0.5
727 1 45.5 0
728 1 45.5 0.5
729 1 45 0
730 1 45 0.5
731 1 45.5 0
732 1 45.5 0.5
733 1 45 0
734 1 45 0.5
735 1 45.5 0
736 1 45.5 0.5
737 1 46 0
738 1 46 0.5
739 1 46.5 0
740 1 46.5 0.5
741 1 46 0
742 1 46 0.5
743 1 46.5 0
744 1 46.5 0.5
745 1 46 0
746 1 46 0.5
747 1 46.5 0
748 1 46.5 0.5
749 1 46 0
750 1 46 0.5
751 1 46.5 0
752 1 46.5 0.5
753 1 47 0
754 1 47 0.5
755 1 47.5 0
756 1 47.5 0.5
757 1 47 0
758 1 47 0.5
759 1 47.5 0
760 1 47.5 0.5
761 1 47 0
762 1 47 0.5
763 1 47.5 0
764 1 47.5 0.5
765 1 47 0
766 1 47 0.5
767 1 47.5 0
768 1 47.5 0.5
769 1 48 0
770 1 48 0.5
771 1 48.5 0
772 1 48.5 0.5
773 1 48 0
774 1 48 0.5
775 1 48.5 0
776 1 48.5 0.5
777 1 48 0
778 1 48 0.5
779 1 48.5 0
780 1 48.5 0.5
781 1 48 0
782 1 48 0.5
783 1 48.5 0
784 1 48.5 0.5
785 1 49 0
786 1 49 0.5
787 1 49.5 0
788 1 49.5 0.5
789 1 49 0
790 1 49 0.5
791 1 49.5 0
792 1 49.5 0.5
793 1 49 0
794 1 49 0.5
795 1 49.5 0
796 1 49.5 0.5
797 1 49 0
798 1 49 0.5
799 1 49.5 0
800 1 49.5 0.5
801 1 50 0
802 1 50 0.5
803 1 50.5 0
804 1 50.5 0.5
805 1 50 0
806 1 50 0.5
807 1 50.5 0
808 1 50.5 0.5
809 1 50 0
810 1 50 0.5
811 1 50.5 0
812 1 50.5 0.5
813 1 50 0
814 1 50 0.5
815 1 50.5 0
816 1 50.5 0.5
817 1 51 0
818 1 51 0.5
819 1 51.5 0
820 1 51.5 0.5
821 1 51 0
822 1 51 0.5
823 1 51.5 0
824 1 51.5 0.5
825 1 51 0
826 1 51 0.5
827 1 51.5 0
828 1 51.5 0.5
829 1 51 0
830 1 51 0.5
831 1 51.5 0
832 1 51.5 0.5
833 1 52 0
834 1 52 0.5
835 1 52.5 0
836 1 52.5 0.5
837 1 52 0
838 1 52 0.5
839 1 52.5 0
840 1 52.5 0.5
841 1 52 0
842 1 52 0.5
843 1 52.5 0
844 1 52.5 0.5
845 1 52 0
846 1 52 0.5
847 1 52.5 0
848 1 52.5 0.5
849 1 53 0
850 1 53 0.5
851 1 53.5 0
852 1 53.5 0.5
853 1 53 0
854 1 53 0.5
855 1 53.5 0
856 1 53.5 0.5
857 1 53 0
858 1 53 0.5
859 1 53.5 0
860 1 53.5 0.5
861 1 53 0
862 1 53 0.5
863 1 53.5 0
864 1 53.5 0.5
865 1 54 0
866 1 54 0.5
867 1 54.5 0
868 1 54.5 0.5
869 1 54 0
870 1 54 0.5
871 1 54.5 0
872 1 54.5 0.5
873 1 54 0
874 1 54 0.5
875 1 54.5 0
876 1 54.5 0.5
877 1 54 0
878 1 54 0.5
879 1 54.5 0
880 1 54.5 0.5
881 1 55 0
882 1 55 0.5
883 1 55.5 0
884 1 55.5 0.5
885 1 55 0
886 1 55 0.5
887 1 55.5 0
888 1 55.5 0.5
889 1 55 0
890 1 55 0.5
891 1 55.5 0
892 1 55.5 0.5
893 1 55 0
894 1 55 0.5
895 1 55.5 0
896 1 55.5 0.5
897 1 56 0
898 1 56 0.5
899 1 56.5 0
900 1 56.5 0.5
901 1 56 0
902 1 56 0.5
903 1 56.5 0
904 1 56.5 0.5
905 1 56 0
906 1 56 0.5
907 1 56.5 0
908 1 56.5 0.5
909 1 56 0
910 1 56 0.5
911 1 56.5 0
912 1 56.5 0.5
913 1 57 0
914 1 57 0.5
915 1 57.5 0
916 1 57.5 0.5
917 1 57 0
918 1 57 0.5
919 1 57.5 0
920 1 57.5 0.5
921 1 57 0
922 1 57 0.5
923 1 57.5 0
924 1 57.5 0.5
925 1 57 0
926 1 57 0.5
927 1 57.5 0
928 1 57.5 0.5
929 1 58 0
930 1 58 0.5
931 1 58.5 0
932 1 58.5 0.5
933 1 58 0
934 1 58 0.5
935 1 58.5 0
936 1 58.5 0.5
937 1 58 0
938 1 58 0.5
939 1 58.5 0
940 1 58.5 0.5
941 1 58 0
942 1 58 0.5
943 1 58.5 0
944 1 58.5 0.5
945 1 59 0
946 1 59 0.5
947 1 59.5 0
948 1 59.5 0.5
949 1 59 0
950 1 59 0.5
951 1 59.5 0
952 1 59.5 0.5
953 1 59 0
954 1 59 0.5
955 1 59.5 0
956 1 59.5 0.5
957 1 59 0
958 1 59 0.5
959 1 59.5 0
960 1 59.5 0.5
961 1 60 0
962 1 60 0.5
963 1 60 0
964 1 60 0.5
965 1 60 0
966 1 60 0.5
967 1 60 0
968 1 60 0.5
969 1 0 1
970 1 0 1.5
971 1 0.5 1
972 1 0.5 1.5
973 1 0 1
974 1 0 1.5
975 1 0.5 1
976 1 0.5 1.5
977 1 0 1
978 1 0 1.5
979 1 0.5 1
980 1 0.5 1.5
981 1 0 1
982 1 0 1.5
983 1 0.5 1
984 1 0.5 1.5
985 1 1 1
986 1 1 1.5
987 1 1.5 1
988 1 1.5 1.5
989 1 1 1
990 1 1 1.5
991 1 1.5 1
992 1 1.5 1.5
993 1 1 1
994 1 1 1.5
995 1 1.5 1
996 1 1.5 1.5
997 1 1 1
998 1 1 1.5
999 1 1.5 1
1000 1 1.5 1.5
1001 1 2 1
1002 1 2 1.5
1003 1 2.5 1
1004 1 2.5 1.5
1005 1 2 1
1006 1 2 1.5
1007 1 2.5 1
1008 1 2.5 1.5
1009 1 2 1
1010 1 2 1.5
1011 1 2.5 1
1012 1 2.5 1.5
1013 1 2 1
1014 1 2 1.5
1015 1 2.5 1
1016 1 2.5 1.5
1017 1 3 1
1018 1 3 1.5
1019 1 3.5 1
1020 1 3.5 1.5
1021 1 3 1
1022 1 3 1.5
1023 1 3.5 1
1024 1 3.5 1.5
1025 1 3 1
1026 1 3 1.5
1027 1 3.5 1
1028 1 3.5 1.5
1029 1 3 1
1030 1 3 1.5
1031 1 3.5 1
1032 1 3.5 1.5
1033 1 4 1
1034 1 4 1.5
1035 1 4.5 1
1036 1 4.5 1.5
1037 1 4 1
1038 1 4 1.5
1039 1 4.5 1
1040 1 4.5 1.5
1041 1 4 1
1042 1 4 1.5
1043 1 4.5 1
1044 1 4.5 1.5
1045 1 4 1
1046 1 4 1.5
1047 1 4.5 1
1048 1 4.5 1.5
1049 1 5 1
1050 1 5 1.5
1051 1 5.5 1
1052 1 5.5 1.5
1053 1 5 1
1054 1 5 1.5
1055 1 5.5 1
1056 1 5.5 1.5
1057 1 5 1
1058 1 5 1.5
1059 1 5.5 1
1060 1 5.5 1.5
1061 1 5 1
1062 1 5 1.5
1063 1 5.5 1
1064 1 5.5 1.5
1065 1 6 1
1066 1 6 1.5
1067 1 6.5 1
1068 1 6.5 1.5
1069 1 6 1
1070 1 6 1.5
1071 1 6.5 1
1072 1 6.5 1.5
1073 1 6 1
1074 1 6 1.5
1075 1 6.5 1
1076 1 6.5 1.5
1077 1 6 1
1078 1 6 1.5
1079 1 6.5 1
1080 1 6.5 1.5
1081 1 7 1
1082 1 7 1.5
1083 1 7.5 1
1084 1 7.5 1.5
1085 1 7 1
1086 1 7 1.5
1087 1 7.5 1
1088 1 7.5 1.5
1089 1 7 1
1090 1 7 1.5
1091 1 7.5 1
1092 1 7.5 1.5
1093 1 7 1
1094 1 7 1.5
1095 1 7.5 1
1096 1 7.5 1.5
1097 1 8 1
1098 1 8 1.5
1099 1 8.5 1
1100 1 8.5 1.5
1101 1 8 1
1102 1 8 1.5
1103 1 8.5 1
1104 1 8.5 1.5
1105 1 8 1
1106 1 8 1.5
1107 1 8.5 1
1108 1 8.5 1.5
1109 1 8 1
1110 1 8 1.5
1111 1 8.5 1
1112 1 8.5 1.5
1113 1 9 1
1114 1 9 1.5
1115 1 9.5 1
1116 1 9.5 1.5
1117 1 9 1
1118 1 9 1.5
1119 1 9.5 1
1120 1 9.5 1.5
1121 1 9 1
1122 1 9 1.5
1123 1 9.5 1
1124 1 9.5 1.5
1125 1 9 1
1126 1 9 1.5
1127 1 9.5 1
1128 1 9.5 1.5
1129 1 10 1
1130 1 10 1.5
1131 1 10.5 1
1132 1 10.5 1.5
1133 1 10 1
1134 1 10 1.5
1135 1 10.5 1
1136 1 10.5 1.5
1137 1 10 1
1138 1 10 1.5
1139 1 10.5 1
1140 1 10.5 1.5
1141 1 10 1
1142 1 10 1.5
1143 1 10.5 1
1144 1 10.5 1.5
1145 1 11 1
1146 1 11 1.5
1147 1 11.5 1
1148 1 11.5 1.5
1149 1 11 1
1150 1 11 1.5
1151 1 11.5 1
1152 1 11.5 1.5
1153 1 11 1
1154 1 11 1.5
1155 1 11.5 1
1156 1 11.5 1.5
1157 1 11 1
1158 1 11 1.5
1159 1 11.5 1
1160 1 11.5 1.5
1161 1 12 1
1162 1 12 1.5
1163 1 12.5 1
1164 1 12.5 1.5
1165 1 12 1
1166 1 12 1.5
1167 1 12.5 1
1168 1 12.5 1.5
1169 1 12 1
1170 1 12 1.5
1171 1 12.5 1
1172 1 12.5 1.5
1173 1 12 1
1174 1 12 1.5
1175 1 12.5 1
1176 1 12.5 1.5
1177 1 13 1
1178 1 13 1.5
1179 1 13.5 1
1180 1 13.5 1.5
1181 1 13 1
1182 1 13 1.5
1183 1 13.5 1
1184 1 13.5 1.5
1185 1 13 1
1186 1 13 1.5
1187 1 13.5 1
1188 1 13.5 1.5
1189 1 13 1
1190 1 13 1.5
1191 1 13.5 1
1192 1 13.5 1.5
1193 1 14 1
1194 1 14 1.5
1195 1 14.5 1
1196 1 14.5 1.5
1197 1 14 1
1198 1 14 1.5
1199 1 14.5 1
1200 1 14.5 1.5
1201 1 14 1
1202 1 14 1.5
1203 1 14.5 1
1204 1 14.5 1.5
1205 1 14 1
1206 1 14 1.5
1207 1 14.5 1
1208 1 14.5 1.5
1209 1 15 1
1210 1 15 1.5
1211 1 15.5 1
1212 1 15.5 1.5
1213 1 15 1
1214 1 15 1.5
1215 1 15.5 1
1216 1 15.5 1.5
1217 1 15 1
1218 1 15 1.5
1219 1 15.5 1
1220 1 15.5 1.5
1221 1 15 1
1222 1 15 1.5
1223 1 15.5 1
1224 1 15.5 1.5
1225 1 16 1
1226 1 16 1.5
1227 1 16.5 1
1228 1 16.5 1.5
1229 1 16 1
1230 1 16 1.5
1231 1 16.5 1
1232 1 16.5 1.5
1233 1 16 1
1234 1 16 1.5
1235 1 16.5 1
1236 1 16.5 1.5
1237 1 16 1
1238 1 16 1.5
1239 1 16.5 1
1240 1 16.5 1.5
1241 1 17 1
1242 1 17 1.5
1243 1 17.5 1
1244 1 17.5 1.5
1245 1 17 1
1246 1 17 1.5
1247 1 17.5 1
1248 1 17.5 1.5
1249 1 17 1
1250 1 17 1.5
1251 1 17.5 1
1252 1 17.5 1.5
1253 1 17 1
1254 1 17 1.5
1255 1 17.5 1
1256 1 17.5 1.5
1257 1 18 1
1258 1 18 1.5
1259 1 18.5 1
1260 1 18.5 1.5
1261 1 18 1
1262 1 18 1.5
1263 1 18.5 1
1264 1 18.5 1.5
1265 1 18 1
1266 1 18 1.5
1267 1 18.5 1
1268 1 18.5 1.5
1269 1 18 1
1270 1 18 1.5
1271 1 18.5 1
1272 1 18.5 1.5
1273 1 19 1
1274 1 19 1.5
1275 1 19.5 1
1276 1 19.5 1.5
1277 1 19 1
1278 1 19 1.5
1279 1 19.5 1
1280 1 19.5 1.5
1281 1 19 1
1282 1 19 1.5
1283 1 19.5 1
1284 1 19.5 1.5
1285 1 19 1
1286 1 19 1.5
1287 1 19.5 1
1288 1 19.5 1.5
1289 1 20 1
1290 1 20 1.5
1291 1 20.5 1
1292 1 20.5 1.5
1293 1 20 1
1294 1 20 1.5
1295 1 20.5 1
1296 1 20.5 1.5
1297 1 20 1
1298 1 20 1.5
1299 1 20.5 1
1300 1 20.5 1.5
1301 1 20 1
1302 1 20 1.5
1303 1 20.5 1
1304 1 20.5 1.5
1305 1 21 1
1306 1 21 1.5
1307 1 21.5 1
1308 1 21.5 1.5
1309 1 21 1
1310 1 21 1.5
1311 1 21.5 1
1312 1 21.5 1.5
1313 1 21 1
1314 1 21 1.5
1315 1 21.5 1
1316 1 21.5 1.5
1317 1 21 1
1318 1 21 1.5
1319 1 21.5 1
1320 1 21.5 1.5
1321 1 22 1
1322 1 22 1.5
1323 1 22.5 1
1324 1 22.5 1.5
1325 1 22 1
1326 1 22 1.5
1327 1 22.5 1
1328 1 22.5 1.5
1329 1 22 1
1330 1 22 1.5
1331 1 22.5 1
1332 1 22.5 1.5
1333 1 22 1
1334 1 22 1.5
1335 1 22.5 1
1336 1 22.5 1.5
1337 1 23 1
1338 1 23 1.5
1339 1 23.5 1
1340 1 23.5 1.5
1341 1 23 1
1342 1 23 1.5
1343 1 23.5 1
1344 1 23.5 1.5
1345 1 23 1
1346 1 23 1.5
1347 1 23.5 1
1348 1 23.5 1.5
1349 1 23 1
1350 1 23 1.5
1351 1 23.5 1
1352 1 23.5 1.5
1353 1 24 1
1354 1 24 1.5
1355 1 24.5 1
1356 1 24.5 1.5
1357 1 24 1
1358 1 24 1.5
1359 1 24.5 1
1360 1 24.5 1.5
1361 1 24 1
1362 1 24 1.5
1363 1 24.5 1
1364 1 24.5 1.5
1365 1 24 1
1366 1 24 1.5
1367 1 24.5 1
1368 1 24.5 1.5
1369 1 25 1
1370 1 25 1.5
1371 1 25.5 1
1372 1 25.5 1.5
1373 1 25 1
1374 1 25 1.5
1375 1 25.5 1
1376 1 25.5 1.5
1377 1 25 1
1378 1 25 1.5
1379 1 25.5 1
1380 1 25.5 1.5
1381 1 25 1
1382 1 25 1.5
1383 1 25.5 1
1384 1 25.5 1.5
1385 1 26 1
1386 1 26 1.5
1387 1 26.5 1
1388 1 26.5 1.5
1389 1 26 1
1390 1 26 1.5
1391 1 26.5 1
1392 1 26.5 1.5
1393 1 26 1
1394 1 26 1.5
1395 1 26.5 1
1396 1 26.5 1.5
1397 1 26 1
1398 1 26 1.5
1399 1 26.5 1
1400 1 26.5 1.5
1401 1 27 1
1402 1 27 1.5
1403 1 27.5 1
1404 1 27.5 1.5
1405 1 27 1
1406 1 27 1.5
1407 1 27.5 1
1408 1 27.5 1.5
1409 1 27 1
1410 1 27 1.5
1411 1 27.5 1
1412 1 27.5 1.5
1413 1 27 1
1414 1 27 1.5
1415 1 27.5 1
1416 1 27.5 1.5
1417 1 28 1
1418 1 28 1.5
1419 1 28.5 1
1420 1 28.5 1.5
1421 1 28 1
1422 1 28 1.5
1423 1 28.5 1
1424 1 28.5 1.5
1425 1 28 1
1426 1 28 1.5
1427 1 28.5 1
1428 1 28.5 1.5
1429 1 28 1
1430 1 28 1.5
1431 1 28.5 1
1432 1 28.5 1.5
1433 1 29 1
1434 1 29 1.5
1435 1 29.5 1
1436 1 29.5 1.5
1437 1 29 1
1438 1 29 1.5
1439 1 29.5 1
1440 1 29.5 1.5
1441 1 29 1
1442 1 29 1.5
1443 1 29.5 1
1444 1 29.5 1.5
1445 1 29 1
1446 1 29 1.5
1447 1 29.5 1
1448 1 29.5 1.5
1449 1 30 1
1450 1 30 1.5
1451 1 30.5 1
1452 1 30.5 1.5
1453 1 30 1
1454 1 30 1.5
1455 1 30.5 1
1456 1 30.5 1.5
1457 1 30 1
1458 1 30 1.5
1459 1 30.5 1
1460 1 30.5 1.5
1461 1 30 1
1462 1 30 1.5
1463 1 30.5 1
1464 1 30.5 1.5
1465 1 31 1
1466 1 31 1.5
1467 1 31.5 1
1468 1 31.5 1.5
1469 1 31 1
1470 1 31 1.5
1471 1 31.5 1
1472 1 31.5 1.5
1473 1 31 1
1474 1 31 1.5
1475 1 31.5 1
1476 1 31.5 1.5
1477 1 31 1
1478 1 31 1.5
1479 1 31.5 1
1480 1 31.5 1.5
1481 1 32 1
1482 1 32 1.5
1483 1 32.5 1
1484 1 32.5 1.5
1485 1 32 1
1486 1 32 1.5
1487 1 32.5 1
1488 1 32.5 1.5
1489 1 32 1
1490 1 32 1.5
1491 1 32.5 1
1492 1 32.5 1.5
1493 1 32 1
1494 1 32 1.5
1495 1 32.5 1
1496 1 32.5 1.5
1497 1 33 1
1498 1 33 1.5
1499 1 33.5 1
1500 1 33.5 1.5
1501 1 33 1
1502 1 33 1.5
1503 1 33.5 1
1504 1 33.5 1.5
1505 1 33 1
1506 1 33 1.5
1507 1 33.5 1
1508 1 33.5 1.5
1509 1 33 1
1510 1 33 1.5
1511 1 33.5 1
1512 1 33.5 1.5
1513 1 34 1
1514 1 34 1.5
1515 1 34.5 1
1516 1 34.5 1.5
1517 1 34 1
1518 1 34 1.5
1519 1 34.5 1
1520 1 34.5 1.5
1521 1 34 1
1522 1 34 1.5
1523 1 34.5 1
1524 1 34.5 1.5
1525 1 34 1
1526 1 34 1.5
1527 1 34.5 1
1528 1 34.5 1.5
1529 1 35 1
1530 1 35 1.5
1531 1 35.5 1
1532 1 35.5 1.5
1533 1 35 1
1534 1 35 1.5
1535 1 35.5 1
1536 1 35.5 1.5
1537 1 35 1
1538 1 35 1.5
1539 1 35.5 1
1540 1 35.5 1.5
1541 1 35 1
1542 1 35 1.5
1543 1 35.5 1
1544 1 35.5 1.5
1545 1 36 1
1546 1 36 1.5
1547 1 36.5 1
1548 1 36.5 1.5
1549 1 36 1
1550 1 36 1.5
1551 1 36.5 1
1552 1 36.5 1.5
1553 1 36 1
1554 1 36 1.5
1555 1 36.5 1
1556 1 36.5 1.5
1557 1 36 1
1558 1 36 1.5
1559 1 36.5 1
1560 1 36.5 1.5
1561 1 37 1
1562 1 37 1.5
1563 1 37.5 1
1564 1 37.5 1.5
1565 1 37 1
1566 1 37 1.5
1567 1 37.5 1
1568 1 37.5 1.5
1569 1 37 1
1570 1 37 1.5
1571 1 37.5 1
1572 1 37.5 1.5
1573 1 37 1
1574 1 37 1.5
1575 1 37.5 1
1576 1 37.5 1.5
1577 1 38 1
1578 1 38 1.5
1579 1 38.5 1
1580 1 38.5 1.5
1581 1 38 1
1582 1 38 1.5
1583 1 38.5 1
1584 1 38.5 1.5
1585 1 38 1
1586 1 38 1.5
1587 1 38.5 1
1588 1 38.5 1.5
1589 1 38 1
1590 1 38 1.5
1591 1 38.5 1
1592 1 38.5 1.5
1593 1 39 1
1594 1 39 1.5
1595 1 39.5 1
1596 1 39.5 1.5
1597 1 39 1
1598 1 39 1.5
1599 1 39.5 1
1600 1 39.5 1.5
1601 1 39 1
1602 1 39 1.5
1603 1 39.5 1
1604 1 39.5 1.5
1605 1 39 1
1606 1 39 1.5
1607 1 39.5 1
1608 1 39.5 1.5
1609 1 40 1
1610 1 40 1.5
1611 1 40.5 1
1612 1 40.5 1.5
1613 1 40 1
1614 1 40 1.5
1615 1 40.5 1
1616 1 40.5 1.5
1617 1 40 1
1618 1 40 1.5
1619 1 40.5 1
1620 1 40.5 1.5
1621 1 40 1
1622 1 40 1.5
1623 1 40.5 1
1624 1 40.5 1.5
1625 1 41 1
1626 1 41 1.5
1627 1 41.5 1
1628 1 41.5 1.5
1629 1 41 1
1630 1 41 1.5
1631 1 41.5 1
1632 1 41.5 1.5
1633 1 41 1
1634 1 41 1.5
1635 1 41.5 1
1636 1 41.5 1.5
1637 1 41 1
1638 1 41 1.5
1639 1 41.5 1
1640 1 41.5 1.5
1641 1 42 1
1642 1 42 1.5
1643 1 42.5 1
1644 1 42.5 1.5
1645 1 42 1
1646 1 42 1.5
1647 1 42.5 1
1648 1 42.5 1.5
1649 1 42 1
1650 1 42 1.5
1651 1 42.5 1
1652 1 42.5 1.5
1653 1 42 1
1654 1 42 1.5
1655 1 42.5 1
1656 1 42.5 1.5
1657 1 43 1
1658 1 43 1.5
1659 1 43.5 1
1660 1 43.5 1.5
1661 1 43 1
1662 1 43 1.5
1663 1 43.5 1
1664 1 43.5 1.5
1665 1 43 1
1666 1 43 1.5
1667 1 43.5 1
1668 1 43.5 1.5
1669 1 43 1
1670 1 43 1.5
1671 1 43.5 1
1672 1 43.5 1.5
1673 1 44 1
1674 1 44 1.5
1675 1 44.5 1
1676 1 44.5 1.5
1677 1 44 1
1678 1 44 1.5
1679 1 44.5 1
1680 1 44.5 1.5
1681 1 44 1
1682 1 44 1.5
1683 1 44.5 1
1684 1 44.5 1.5
1685 1 44 1
1686 1 44 1.5
1687 1 44.5 1
1688 1 44.5 1.5
1689 1 45 1
1690 1 45 1.5
1691 1 45.5 1
1692 1 45.5 1.5
1693 1 45 1
1694 1 45 1.5
1695 1 45.5 1
1696 1 45.5 1.5
1697 1 45 1
1698 1 45 1.5
1699 1 45.5 1
1700 1 45.5 1.5
1701 1 45 1
1702 1 45 1.5
1703 1 45.5 1
1704 1 45.5 1.5
1705 1 46 1
1706 1 46 1.5
1707 1 46.5 1
1708 1 46.5 1.5
1709 1 46 1
1710 1 46 1.5
1711 1 46.5 1
1712 1 46.5 1.5
1713 1 46 1
1714 1 46 1.5
1715 1 46.5 1
1716 1 46.5 1.5
1717 1 46 1
1718 1 46 1.5
1719 1 46.5 1
1720 1 46.5 1.5
1721 1 47 1
1722 1 47 1.5
1723 1 47.5 1
1724 1 47.5 1.5
1725 1 47 1
1726 1 47 1.5
1727 1 47.5 1
1728 1 47.5 1.5
1729 1 47 1
1730 1 47 1.5
1731 1 47.5 1
1732 1 47.5 1.5
1733 1 47 1
1734 1 47 1.5
1735 1 47.5 1
1736 1 47.5 1.5
1737 1 48 1
1738 1 48 1.5
1739 1 48.5 1
1740 1 48.5 1.5
1741 1 48 1
1742 1 48 1.5
1743 1 48.5 1
1744 1 48.5 1.5
1745 1 48 1
1746 1 48 1.5
1747 1 48.5 1
1748 1 48.5 1.5
1749 1 48 1
1750 1 48 1.5
1751 1 48.5 1
1752 1 48.5 1.5
1753 1 49 1
1754 1 49 1.5
1755 1 49.5 1
1756 1 49.5 1.5
1757 1 49 1
1758 1 49 1.5
1759 1 49.5 1
1760 1 49.5 1.5
1761 1 49 1
1762 1 49 1.5
1763 1 49.5 1
1764 1 49.5 1.5
1765 1 49 1
1766 1 49 1.5
1767 1 49.5 1
1768 1 49.5 1.5
1769 1 50 1
1770 1 50 1.5
1771 1 50.5 1
1772 1 50.5 1.5
1773 1 50 1
1774 1 50 1.5
1775 1 50.5 1
1776 1 50.5 1.5
1777 1 50 1
1778 1 50 1.5
1779 1 50.5 1
1780 1 50.5 1.5
1781 1 50 1
1782 1 50 1.5
1783 1 50.5 1
1784 1 50.5 1.5
1785 1 51 1
1786 1 51 1.5
1787 1 51.5 1
1788 1 51.5 1.5
1789 1 51 1
1790 1 51 1.5
1791 1 51.5 1
1792 1 51.5 1.5
1793 1 51 1
1794 1 51 1.5
1795 1 51.5 1
1796 1 51.5 1.5
1797 1 51 1
1798 1 51 1.5
1799 1 51.5 1
1800 1 51.5 1.5
1801 1 52 1
1802 1 52 1.5
1803 1 52.5 1
1804 1 52.5 1.5
1805 1 52 1
1806 1 52 1.5
1807 1 52.5 1
1808 1 52.5 1.5
1809 1 52 1
1810 1 52 1.5
1811 1 52.5 1
1812 1 52.5 1.5
1813 1 52 1
1814 1 52 1.5
1815 1 52.5 1
1816 1 52.5 1.5
1817 1 53 1
1818 1 53 1.5
1819 1 53.5 1
1820 1 53.5 1.5
1821 1 53 1
1822 1 53 1.5
1823 1 53.5 1
1824 1 53.5 1.5
1825 1 53 1
1826 1 53 1.5
1827 1 53.5 1
1828 1 53.5 1.5
1829 1 53 1
1830 1 53 1.5
1831 1 53.5 1
1832 1 53.5 1.5
1833 1 54 1
1834 1 54 1.5
1835 1 54.5 1
1836 1 54.5 1.5
1837 1 54 1
1838 1 54 1.5
1839 1 54.5 1
1840 1 54.5 1.5
1841 1 54 1
1842 1 54 1.5
1843 1 54.5 1
1844 1 54.5 1.5
1845 1 54 1
1846 1 54 1.5
1847 1 54.5 1
1848 1 54.5 1.5
1849 1 55 1
1850 1 55 1.5
1851 1 55.5 1
1852 1 55.5 1.5
1853 1 55 1
1854 1 55 1.5
1855 1 55.5 1
1856 1 55.5 1.5
1857 1 55 1
1858 1 55 1.5
1859 1 55.5 1
1860 1 55.5 1.5
1861 1 55 1
1862 1 55 1.5
1863 1 55.5 1
1864 1 55.5 1.5
1865 1 56 1
1866 1 56 1.5
1867 1 56.5 1
1868 1 56.5 1.5
1869 1 56 1
1870 1 56 1.5
1871 1 56.5 1
1872 1 56.5 1.5
1873 1 56 1
1874 1 56 1.5
1875 1 56.5 1
1876 1 56.5 1.5
1877 1 56 1
1878 1 56 1.5
1879 1 56.5 1
1880 1 56.5 1.5
1881 1 57 1
1882 1 57 1.5
1883 1 57.5 1
1884 1 57.5 1.5
1885 1 57 1
1886 1 57 1.5
1887 1 57.5 1
1888 1 57.5 1.5
1889 1 57 1
1890 1 57 1.5
1891 1 57.5 1
1892 1 57.5 1.5
1893 1 57 1
1894 1 57 1.5
1895 1 57.5 1
1896 1 57.5 1.5
1897 1 58 1
1898 1 58 1.5
1899 1 58.5 1
1900 1 58.5 1.5
1901 1 58 1
1902 1 58 1.5
1903 1 58.5 1
1904 1 58.5 1.5
1905 1 58 1
1906 1 58 1.5
1907 1 58.5 1
1908 1 58.5 1.5
1909 1 58 1
1910 1 58 1.5
1911 1 58.5 1
1912 1 58.5 1.5
1913 1 59 1
1914 1 59 1.5
1915 1 59.5 1
1916 1 59.5 1.5
1917 1 59 1
1918 1 59 1.5
1919 1 59.5 1
1920 1 59.5 1.5
1921 1 59 1
1922 1 59 1.5
1923 1 59.5 1
1924 1 59.5 1.5
1925 1 59 1
1926 1 59 1.5
1927 1 59.5 1
1928 1 59.5 1.5
1929 1 60 1
1930 1 60 1.5
1931 1 60 1
1932 1 60 1.5
1933 1 60 1
1934 1 60 1.5
1935 1 60 1
1936 1 60 1.5
1937 1 0 2
1938 1 0 2.5
1939 1 0.5 2
1940 1 0.5 2.5
1941 1 0 2
1942 1 0 2.5
1943 1 0.5 2
1944 1 0.5 2.5
1945 1 0 2
1946 1 0 2.5
1947 1 0.5 2
1948 1 0.5 2.5
1949 1 0 2
1950 1 0 2.5
1951 1 0.5 2
1952 1 0.5 2.5
1953 1 1 2
1954 1 1 2.5
1955 1 1.5 2
1956 1 1.5 2.5
1957 1 1 2
1958 1 1 2.5
1959 1 1.5 2
1960 1 1.5 2.5
1961 1 1 2
1962 1 1 2.5
1963 1 1.5 2
1964 1 1.5 2.5
1965 1 1 2
1966 1 1 2.5
1967 1 1.5 2
1968 1 1.5 2.5
1969 1 2 2
1970 1 2 2.5
1971 1 2.5 2
1972 1 2.5 2.5
1973 1 2 2
1974 1 2 2.5
1975 1 2.5 2
1976 1 2.5 2.5
1977 1 2 2
1978 1 2 2.5
1979 1 2.5 2
1980 1 2.5 2.5
1981 1 2 2
1982 1 2 2.5
1983 1 2.5 2
1984 1 2.5 2.5
1985 1 3 2
1986 1 3 2.5
1987 1 3.5 2
1988 1 3.5 2.5
1989 1 3 2
1990 1 3 2.5
1991 1 3.5 2
1992 1 3.5 2.5
1993 1 3 2
1994 1 3 2.5
1995 1 3.5 2
1996 1 3.5 2.5
1997 1 3 2
1998 1 3 2.5
1999 1 3.5 2
2000 1 3.5 2.5
2001 1 4 2
2002 1 4 2.5
2003 1 4.5 2
2004 1 4.5 2.5
2005 1 4 2
2006 1 4 2.5
2007 1 4.5 2
2008 1 4.5 2.5
2009 1 4 2
2010 1 4 2.5
2011 1 4.5 2
2012 1 4.5 2.5
2013 1 4 2
2014 1 4 2.5
2015 1 4.5 2
2016 1 4.5 2.5
2017 1 5 2
2018 1 5 2.5
2019 1 5.5 2
2020 1 5.5 2.5
2021 1 5 2
2022 1 5 2.5
2023 1 5.5 2
2024 1 5.5 2.5
2025 1 5 2
2026 1 5 2.5
2027 1 5.5 2
2028 1 5.5 2.5
2029 1 5 2
2030 1 5 2.5
2031 1 5.5 2
2032 1 5.5 2.5
2033 1 6 2
2034 1 6 2.5
2035 1 6.5 2
2036 1 6.5 2.5
2037 1 6 2
2038 1 6 2.5
2039 1 6.5 2
2040 1 6.5 2.5
2041 1 6 2
2042 1 6 2.5
2043 1 6.5 2
2044 1 6.5 2.5
2045 1 6 2
2046 1 6 2.5
2047 1 6.5 2
2048 1 6.5 2.5
2049 1 7 2
2050 1 7 2.5
2051 1 7.5 2
2052 1 7.5 2.5
2053 1 7 2
2054 1 7 2.5
2055 1 7.5 2
2056 1 7.5 2.5
2057 1 7 2
2058 1 7 2.5
2059 1 7.5 2
2060 1 7.5 2.5
2061 1 7 2
2062 1 7 2.5
2063 1 7.5 2
2064 1 7.5 2.5
2065 1 8 2
2066 1 8 2.5
2067 1 8.5 2
2068 1 8.5 2.5
2069 1 8 2
2070 1 8 2.5
2071 1 8.5 2
2072 1 8.5 2.5
2073 1 8 2
2074 1 8 2.5
2075 1 8.5 2
2076 1 8.5 2.5
2077 1 8 2
2078 1 8 2.5
2079 1 8.5 2
2080 1 8.5 2.5
2081 1 9 2
2082 1 9 2.5
2083 1 9.5 2
2084 1 9.5 2.5
2085 1 9 2
2086 1 9 2.5
2087 1 9.5 2
2088 1 9.5 2.5
2089 1 9 2
2090 1 9 2.5
2091 1 9.5 2
2092 1 9.5 2.5
2093 1 9 2
2094 1 9 2.5
2095 1 9.5 2
2096 1 9.5 2.5
2097 1 10 2
2098 1 10 2.5
2099 1 10.5 2
2100 1 10.5 2.5
2101 1 10 2
2102 1 10 2.5
2103 1 10.5 2
2104 1 10.5 2.5
2105 1 10 2
2106 1 10 2.5
2107 1 10.5 2
2108 1 10.5 2.5
2109 1 10 2
2110 1 10 2.5
2111 1 10.5 2
2112 1 10.5 2.5
2113 1 11 2
2114 1 11 2.5
2115 1 11.5 2
2116 1 11.5 2.5
2117 1 11 2
2118 1 11 2.5
2119 1 11.5 2
2120 1 11.5 2.5
2121 1 11 2
2122 1 11 2.5
2123 1 11.5 2
2124 1 11.5 2.5
2125 1 11 2
2126 1 11 2.5
2127 1 11.5 2
2128 1 11.5 2.5
2129 1 12 2
2130 1 12 2.5
2131 1 12.5 2
2132 1 12.5 2.5
2133 1 12 2
2134 1 12 2.5
2135 1 12.5 2
2136 1 12.5 2.5
2137 1 12 2
2138 1 12 2.5
2139 1 12.5 2
2140 1 12.5 2.5
2141 1 12 2
2142 1 12 2.5
2143 1 12.5 2
2144 1 12.5 2.5
2145 1 13 2
2146 1 13 2.5
2147 1 13.5 2
2148 1 13.5 2.5
2149 1 13 2
2150 1 13 2.5
2151 1 13.5 2
2152 1 13.5 2.5
2153 1 13 2
2154 1 13 2.5
2155 1 13.5 2
2156 1 13.5 2.5
2157 1 13 2
2158 1 13 2.5
2159 1 13.5 2
2160 1 13.5 2.5
2161 1 14 2
2162 1 14 2.5
2163 1 14.5 2
2164 1 14.5 2.5
2165 1 14 2
2166 1 14 2.5
2167 1 14.5 2
2168 1 14.5 2.5
2169 1 14 2
2170 1 14 2.5
2171 1 14.5 2
2172 1 14.5 2.5
2173 1 14 2
2174 1 14 2.5
2175 1 14.5 2
2176 1 14.5 2.5
2177 1 15 2
2178 1 15 2.5
2179 1 15.5 2
2180 1 15.5 2.5
2181 1 15 2
2182 1 15 2.5
2183 1 15.5 2
2184 1 15.5 2.5
2185 1 15 2
2186 1 15 2.5
2187 1 15.5 2
2188 1 15.5 2.5
2189 1 15 2
2190 1 15 2.5
2191 1 15.5 2
2192 1 15.5 2.5
2193 1 16 2
2194 1 16 2.5
2195 1 16.5 2
2196 1 16.5 2.5
2197 1 16 2
2198 1 16 2.5
2199 1 16.5 2
2200 1 16.5 2.5
2201 1 16 2
2202 1 16 2.5
2203 1 16.5 2
2204 1 16.5 2.5
2205 1 16 2
2206 1 16 2.5
2207 1 16.5 2
2208 1 16.5 2.5
2209 1 17 2
2210 1 17 2.5
2211 1 17.5 2
2212 1 17.5 2.5
2213 1 17 2
2214 1 17 2.5
2215 1 17.5 2
2216 1 17.5 2.5
2217 1 17 2
2218 1 17 2.5
2219 1 17.5 2
2220 1 17.5 2.5
2221 1 17 2
2222 1 17 2.5
2223 1 17.5 2
2224 1 17.5 2.5
2225 1 18 2
2226 1 18 2.5
2227 1 18.5 2
2228 1 18.5 2.5
2229 1 18 2
2230 1 18 2.5
2231 1 18.5 2
2232 1 18.5 2.5
2233 1 18 2
2234 1 18 2.5
2235 1 18.5 2
2236 1 18.5 2.5
2237 1 18 2
2238 1 18 2.5
2239 1 18.5 2
2240 1 18.5 2.5