Crystalline Cu atoms

792 atoms
3 atom types
-10.0 30.0 xlo xhi
0.0 21.240000000000002 ylo yhi
0.0 21.240000000000002 zlo zhi

Atom Type Labels

1 Cu
2 Ni
3 Fe

Atoms

1 Cu 1.769999999999993 1.769999999999993 3.539999999999992
2 Ni 1.769999999999993 1.769999999999993 7.079999999999991
3 Fe 1.769999999999993 1.769999999999993 10.61999999999999
4 Cu 1.769999999999993 1.769999999999993 14.15999999999999
5 Cu 1.769999999999993 1.769999999999993 17.69999999999999
6 Cu 1.769999999999993 1.769999999999993 21.239999999999988
7 Cu 3.539999999999992 1.769999999999993 1.769999999999993
8 Cu 3.539999999999992 1.769999999999993 5.309999999999992
9 Cu 5.309999999999992 1.769999999999993 3.539999999999992
10 Cu 3.539999999999992 1.769999999999993 8.84999999999999
11 Cu 5.309999999999992 1.769999999999993 7.079999999999991
12 Cu 3.539999999999992 1.769999999999993 12.38999999999999
13 Cu 5.309999999999992 1.769999999999993 10.61999999999999
14 Cu 3.539999999999992 1.769999999999993 15.929999999999989
15 Cu 5.309999999999992 1.769999999999993 14.15999999999999
16 Cu 3.539999999999992 1.769999999999993 19.469999999999988
17 Cu 5.309999999999992 1.769999999999993 17.69999999999999
18 Cu 5.309999999999992 1.769999999999993 21.239999999999988
19 Cu 7.079999999999991 1.769999999999993 1.769999999999993
20 Cu 7.079999999999991 1.769999999999993 5.309999999999992
21 Cu 8.84999999999999 1.769999999999993 3.539999999999992
22 Cu 7.079999999999991 1.769999999999993 8.84999999999999
23 Cu 8.84999999999999 1.769999999999993 7.079999999999991
24 Cu 7.079999999999991 1.769999999999993 12.38999999999999
25 Cu 8.84999999999999 1.769999999999993 10.61999999999999
26 Cu 7.079999999999991 1.769999999999993 15.929999999999989
27 Cu 8.84999999999999 1.769999999999993 14.15999999999999
28 Cu 7.079999999999991 1.769999999999993 19.469999999999988
29 Cu 8.84999999999999 1.769999999999993 17.69999999999999
30 Cu 8.84999999999999 1.769999999999993 21.239999999999988
31 Cu 1.769999999999993 3.539999999999992 1.769999999999993
32 Cu 1.769999999999993 3.539999999999992 5.309999999999992
33 Cu 1.769999999999993 5.309999999999992 3.539999999999992
34 Cu 1.769999999999993 3.539999999999992 8.84999999999999
35 Cu 1.769999999999993 5.309999999999992 7.079999999999991
36 Cu 1.769999999999993 3.539999999999992 12.38999999999999
37 Cu 1.769999999999993 5.309999999999992 10.61999999999999
38 Cu 1.769999999999993 3.539999999999992 15.929999999999989
39 Cu 1.769999999999993 5.309999999999992 14.15999999999999
40 Cu 1.769999999999993 3.539999999999992 19.469999999999988
41 Cu 1.769999999999993 5.309999999999992 17.69999999999999
42 Cu 1.769999999999993 5.309999999999992 21.239999999999988
43 Cu 3.539999999999992 5.309999999999992 1.769999999999993
44 Cu 5.309999999999992 3.539999999999992 1.769999999999993
45 Cu 3.539999999999992 3.539999999999992 3.539999999999992
46 Cu 3.539999999999992 5.309999999999992 5.309999999999992
47 Cu 5.309999999999992 3.539999999999992 5.309999999999992
48 Cu 5.309999999999992 5.309999999999992 3.539999999999992
49 Cu 3.539999999999992 3.539999999999992 7.079999999999991
50 Cu 3.539999999999992 5.309999999999992 8.84999999999999
51 Cu 5.309999999999992 3.539999999999992 8.84999999999999
52 Cu 5.309999999999992 5.309999999999992 7.079999999999991
53 Cu 3.539999999999992 3.539999999999992 10.61999999999999
54 Cu 3.539999999999992 5.309999999999992 12.38999999999999
55 Cu 5.309999999999992 3.539999999999992 12.38999999999999
56 Cu 5.309999999999992 5.309999999999992 10.61999999999999
57 Cu 3.539999999999992 3.539999999999992 14.15999999999999
58 Cu 3.539999999999992 5.309999999999992 15.929999999999989
59 Cu 5.309999999999992 3.539999999999992 15.929999999999989
60 Cu 5.309999999999992 5.309999999999992 14.15999999999999
61 Cu 3.539999999999992 3.539999999999992 17.69999999999999
62 Cu 3.539999999999992 5.309999999999992 19.469999999999988
63 Cu 5.309999999999992 3.539999999999992 19.469999999999988
64 Cu 5.309999999999992 5.309999999999992 17.69999999999999
65 Cu 3.539999999999992 3.539999999999992 21.239999999999988
66 Cu 5.309999999999992 5.309999999999992 21.239999999999988
67 Cu 7.079999999999991 5.309999999999992 1.769999999999993
68 Cu 8.84999999999999 3.539999999999992 1.769999999999993
69 Cu 7.079999999999991 3.539999999999992 3.539999999999992
70 Cu 7.079999999999991 5.309999999999992 5.309999999999992
71 Cu 8.84999999999999 3.539999999999992 5.309999999999992
72 Cu 8.84999999999999 5.309999999999992 3.539999999999992
73 Cu 7.079999999999991 3.539999999999992 7.079999999999991
74 Cu 7.079999999999991 5.309999999999992 8.84999999999999
75 Cu 8.84999999999999 3.539999999999992 8.84999999999999
76 Cu 8.84999999999999 5.309999999999992 7.079999999999991
77 Cu 7.079999999999991 3.539999999999992 10.61999999999999
78 Cu 7.079999999999991 5.309999999999992 12.38999999999999
79 Cu 8.84999999999999 3.539999999999992 12.38999999999999
80 Cu 8.84999999999999 5.309999999999992 10.61999999999999
81 Cu 7.079999999999991 3.539999999999992 14.15999999999999
82 Cu 7.079999999999991 5.309999999999992 15.929999999999989
83 Cu 8.84999999999999 3.539999999999992 15.929999999999989
84 Cu 8.84999999999999 5.309999999999992 14.15999999999999
85 Cu 7.079999999999991 3.539999999999992 17.69999999999999
86 Cu 7.079999999999991 5.309999999999992 19.469999999999988
87 Cu 8.84999999999999 3.539999999999992 19.469999999999988
88 Cu 8.84999999999999 5.309999999999992 17.69999999999999
89 Cu 7.079999999999991 3.539999999999992 21.239999999999988
90 Cu 8.84999999999999 5.309999999999992 21.239999999999988
91 Cu 1.769999999999993 7.079999999999991 1.769999999999993
92 Cu 1.769999999999993 7.079999999999991 5.309999999999992
93 Cu 1.769999999999993 8.84999999999999 3.539999999999992
94 Cu 1.769999999999993 7.079999999999991 8.84999999999999
95 Cu 1.769999999999993 8.84999999999999 7.079999999999991
96 Cu 1.769999999999993 7.079999999999991 12.38999999999999
97 Cu 1.769999999999993 8.84999999999999 10.61999999999999
98 Cu 1.769999999999993 7.079999999999991 15.929999999999989
99 Cu 1.769999999999993 8.84999999999999 14.15999999999999
100 Cu 1.769999999999993 7.079999999999991 19.469999999999988
101 Cu 1.769999999999993 8.84999999999999 17.69999999999999
102 Cu 1.769999999999993 8.84999999999999 21.239999999999988
103 Cu 3.539999999999992 8.84999999999999 1.769999999999993
104 Cu 5.309999999999992 7.079999999999991 1.769999999999993
105 Cu 3.539999999999992 7.079999999999991 3.539999999999992
106 Cu 3.539999999999992 8.84999999999999 5.309999999999992
107 Cu 5.309999999999992 7.079999999999991 5.309999999999992
108 Cu 5.309999999999992 8.84999999999999 3.539999999999992
109 Cu 3.539999999999992 7.079999999999991 7.079999999999991
110 Cu 3.539999999999992 8.84999999999999 8.84999999999999
111 Cu 5.309999999999992 7.079999999999991 8.84999999999999
112 Cu 5.309999999999992 8.84999999999999 7.079999999999991
113 Cu 3.539999999999992 7.079999999999991 10.61999999999999
114 Cu 3.539999999999992 8.84999999999999 12.38999999999999
115 Cu 5.309999999999992 7.079999999999991 12.38999999999999
116 Cu 5.309999999999992 8.84999999999999 10.61999999999999
117 Cu 3.539999999999992 7.079999999999991 14.15999999999999
118 Cu 3.539999999999992 8.84999999999999 15.929999999999989
119 Cu 5.309999999999992 7.079999999999991 15.929999999999989
120 Cu 5.309999999999992 8.84999999999999 14.15999999999999
121 Cu 3.539999999999992 7.079999999999991 17.69999999999999
122 Cu 3.539999999999992 8.84999999999999 19.469999999999988
123 Cu 5.309999999999992 7.079999999999991 19.469999999999988
124 Cu 5.309999999999992 8.84999999999999 17.69999999999999
125 Cu 3.539999999999992 7.079999999999991 21.239999999999988
126 Cu 5.309999999999992 8.84999999999999 21.239999999999988
127 Cu 7.079999999999991 8.84999999999999 1.769999999999993
128 Cu 8.84999999999999 7.079999999999991 1.769999999999993
129 Cu 7.079999999999991 7.079999999999991 3.539999999999992
130 Cu 7.079999999999991 8.84999999999999 5.309999999999992
131 Cu 8.84999999999999 7.079999999999991 5.309999999999992
132 Cu 8.84999999999999 8.84999999999999 3.539999999999992
133 Cu 7.079999999999991 7.079999999999991 7.079999999999991
134 Cu 7.079999999999991 8.84999999999999 8.84999999999999
135 Cu 8.84999999999999 7.079999999999991 8.84999999999999
136 Cu 8.84999999999999 8.84999999999999 7.079999999999991
137 Cu 7.079999999999991 7.079999999999991 10.61999999999999
138 Cu 7.079999999999991 8.84999999999999 12.38999999999999
139 Cu 8.84999999999999 7.079999999999991 12.38999999999999
140 Cu 8.84999999999999 8.84999999999999 10.61999999999999
141 Cu 7.079999999999991 7.079999999999991 14.15999999999999
142 Cu 7.079999999999991 8.84999999999999 15.929999999999989
143 Cu 8.84999999999999 7.079999999999991 15.929999999999989
144 Cu 8.84999999999999 8.84999999999999 14.15999999999999
145 Cu 7.079999999999991 7.079999999999991 17.69999999999999
146 Cu 7.079999999999991 8.84999999999999 19.469999999999988
147 Cu 8.84999999999999 7.079999999999991 19.469999999999988
148 Cu 8.84999999999999 8.84999999999999 17.69999999999999
149 Cu 7.079999999999991 7.079999999999991 21.239999999999988
150 Cu 8.84999999999999 8.84999999999999 21.239999999999988
151 Cu 1.769999999999993 10.61999999999999 1.769999999999993
152 Cu 1.769999999999993 10.61999999999999 5.309999999999992
153 Cu 1.769999999999993 12.38999999999999 3.539999999999992
154 Cu 1.769999999999993 10.61999999999999 8.84999999999999
155 Cu 1.769999999999993 12.38999999999999 7.079999999999991
156 Cu 1.769999999999993 10.61999999999999 12.38999999999999
157 Cu 1.769999999999993 12.38999999999999 10.61999999999999
158 Cu 1.769999999999993 10.61999999999999 15.929999999999989
159 Cu 1.769999999999993 12.38999999999999 14.15999999999999
160 Cu 1.769999999999993 10.61999999999999 19.469999999999988
161 Cu 1.769999999999993 12.38999999999999 17.69999999999999
162 Cu 1.769999999999993 12.38999999999999 21.239999999999988
163 Cu 3.539999999999992 12.38999999999999 1.769999999999993
164 Cu 5.309999999999992 10.61999999999999 1.769999999999993
165 Cu 3.539999999999992 10.61999999999999 3.539999999999992
166 Cu 3.539999999999992 12.38999999999999 5.309999999999992
167 Cu 5.309999999999992 10.61999999999999 5.309999999999992
168 Cu 5.309999999999992 12.38999999999999 3.539999999999992
169 Cu 3.539999999999992 10.61999999999999 7.079999999999991
170 Cu 3.539999999999992 12.38999999999999 8.84999999999999
171 Cu 5.309999999999992 10.61999999999999 8.84999999999999
172 Cu 5.309999999999992 12.38999999999999 7.079999999999991
173 Cu 3.539999999999992 10.61999999999999 10.61999999999999
174 Cu 3.539999999999992 12.38999999999999 12.38999999999999
175 Cu 5.309999999999992 10.61999999999999 12.38999999999999
176 Cu 5.309999999999992 12.38999999999999 10.61999999999999
177 Cu 3.539999999999992 10.61999999999999 14.15999999999999
178 Cu 3.539999999999992 12.38999999999999 15.929999999999989
179 Cu 5.309999999999992 10.61999999999999 15.929999999999989
180 Cu 5.309999999999992 12.38999999999999 14.15999999999999
181 Cu 3.539999999999992 10.61999999999999 17.69999999999999
182 Cu 3.539999999999992 12.38999999999999 19.469999999999988
183 Cu 5.309999999999992 10.61999999999999 19.469999999999988
184 Cu 5.309999999999992 12.38999999999999 17.69999999999999
185 Cu 3.539999999999992 10.61999999999999 21.239999999999988
186 Cu 5.309999999999992 12.38999999999999 21.239999999999988
187 Cu 7.079999999999991 12.38999999999999 1.769999999999993
188 Cu 8.84999999999999 10.61999999999999 1.769999999999993
189 Cu 7.079999999999991 10.61999999999999 3.539999999999992
190 Cu 7.079999999999991 12.38999999999999 5.309999999999992
191 Cu 8.84999999999999 10.61999999999999 5.309999999999992
192 Cu 8.84999999999999 12.38999999999999 3.539999999999992
193 Cu 7.079999999999991 10.61999999999999 7.079999999999991
194 Cu 7.079999999999991 12.38999999999999 8.84999999999999
195 Cu 8.84999999999999 10.61999999999999 8.84999999999999
196 Cu 8.84999999999999 12.38999999999999 7.079999999999991
197 Cu 7.079999999999991 10.61999999999999 10.61999999999999
198 Cu 7.079999999999991 12.38999999999999 12.38999999999999
199 Cu 8.84999999999999 10.61999999999999 12.38999999999999
200 Cu 8.84999999999999 12.38999999999999 10.61999999999999
201 Cu 7.079999999999991 10.61999999999999 14.15999999999999
202 Cu 7.079999999999991 12.38999999999999 15.929999999999989
203 Cu 8.84999999999999 10.61999999999999 15.929999999999989
204 Cu 8.84999999999999 12.38999999999999 14.15999999999999
205 Cu 7.079999999999991 10.61999999999999 17.69999999999999
206 Cu 7.079999999999991 12.38999999999999 19.469999999999988
207 Cu 8.84999999999999 10.61999999999999 19.469999999999988
208 Cu 8.84999999999999 12.38999999999999 17.69999999999999
209 Cu 7.079999999999991 10.61999999999999 21.239999999999988
210 Cu 8.84999999999999 12.38999999999999 21.239999999999988
211 Cu 1.769999999999993 14.15999999999999 1.769999999999993
212 Cu 1.769999999999993 14.15999999999999 5.309999999999992
213 Cu 1.769999999999993 15.929999999999989 3.539999999999992
214 Cu 1.769999999999993 14.15999999999999 8.84999999999999
215 Cu 1.769999999999993 15.929999999999989 7.079999999999991
216 Cu 1.769999999999993 14.15999999999999 12.38999999999999
217 Cu 1.769999999999993 15.929999999999989 10.61999999999999
218 Cu 1.769999999999993 14.15999999999999 15.929999999999989
219 Cu 1.769999999999993 15.929999999999989 14.15999999999999
220 Cu 1.769999999999993 14.15999999999999 19.469999999999988
221 Cu 1.769999999999993 15.929999999999989 17.69999999999999
222 Cu 1.769999999999993 15.929999999999989 21.239999999999988
223 Cu 3.539999999999992 15.929999999999989 1.769999999999993
224 Cu 5.309999999999992 14.15999999999999 1.769999999999993
225 Cu 3.539999999999992 14.15999999999999 3.539999999999992
226 Cu 3.539999999999992 15.929999999999989 5.309999999999992
227 Cu 5.309999999999992 14.15999999999999 5.309999999999992
228 Cu 5.309999999999992 15.929999999999989 3.539999999999992
229 Cu 3.539999999999992 14.15999999999999 7.079999999999991
230 Cu 3.539999999999992 15.929999999999989 8.84999999999999
231 Cu 5.309999999999992 14.15999999999999 8.84999999999999
232 Cu 5.309999999999992 15.929999999999989 7.079999999999991
233 Cu 3.539999999999992 14.15999999999999 10.61999999999999
234 Cu 3.539999999999992 15.929999999999989 12.38999999999999
235 Cu 5.309999999999992 14.15999999999999 12.38999999999999
236 Cu 5.309999999999992 15.929999999999989 10.61999999999999
237 Cu 3.539999999999992 14.15999999999999 14.15999999999999
238 Cu 3.539999999999992 15.929999999999989 15.929999999999989
239 Cu 5.309999999999992 14.15999999999999 15.929999999999989
240 Cu 5.309999999999992 15.929999999999989 14.15999999999999
241 Cu 3.539999999999992 14.15999999999999 17.69999999999999
242 Cu 3.539999999999992 15.929999999999989 19.469999999999988
243 Cu 5.309999999999992 14.15999999999999 19.469999999999988
244 Cu 5.309999999999992 15.929999999999989 17.69999999999999
245 Cu 3.539999999999992 14.15999999999999 21.239999999999988
246 Cu 5.309999999999992 15.929999999999989 21.239999999999988
247 Cu 7.079999999999991 15.929999999999989 1.769999999999993
248 Cu 8.84999999999999 14.15999999999999 1.769999999999993
249 Cu 7.079999999999991 14.15999999999999 3.539999999999992
250 Cu 7.079999999999991 15.929999999999989 5.309999999999992
251 Cu 8.84999999999999 14.15999999999999 5.309999999999992
252 Cu 8.84999999999999 15.929999999999989 3.539999999999992
253 Cu 7.079999999999991 14.15999999999999 7.079999999999991
254 Cu 7.079999999999991 15.929999999999989 8.84999999999999
255 Cu 8.84999999999999 14.15999999999999 8.84999999999999
256 Cu 8.84999999999999 15.929999999999989 7.079999999999991
257 Cu 7.079999999999991 14.15999999999999 10.61999999999999
258 Cu 7.079999999999991 15.929999999999989 12.38999999999999
259 Cu 8.84999999999999 14.15999999999999 12.38999999999999
260 Cu 8.84999999999999 15.929999999999989 10.61999999999999
261 Cu 7.079999999999991 14.15999999999999 14.15999999999999
262 Cu 7.079999999999991 15.929999999999989 15.929999999999989
263 Cu 8.84999999999999 14.15999999999999 15.929999999999989
264 Cu 8.84999999999999 15.929999999999989 14.15999999999999
265 Cu 7.079999999999991 14.15999999999999 17.69999999999999
266 Cu 7.079999999999991 15.929999999999989 19.469999999999988
267 Cu 8.84999999999999 14.15999999999999 19.469999999999988
268 Cu 8.84999999999999 15.929999999999989 17.69999999999999
269 Cu 7.079999999999991 14.15999999999999 21.239999999999988
270 Cu 8.84999999999999 15.929999999999989 21.239999999999988
271 Cu 1.769999999999993 17.69999999999999 1.769999999999993
272 Cu 1.769999999999993 17.69999999999999 5.309999999999992
273 Cu 1.769999999999993 19.469999999999988 3.539999999999992
274 Cu 1.769999999999993 17.69999999999999 8.84999999999999
275 Cu 1.769999999999993 19.469999999999988 7.079999999999991
276 Cu 1.769999999999993 17.69999999999999 12.38999999999999
277 Cu 1.769999999999993 19.469999999999988 10.61999999999999
278 Cu 1.769999999999993 17.69999999999999 15.929999999999989
279 Cu 1.769999999999993 19.469999999999988 14.15999999999999
280 Cu 1.769999999999993 17.69999999999999 19.469999999999988
281 Cu 1.769999999999993 19.469999999999988 17.69999999999999
282 Cu 1.769999999999993 19.469999999999988 21.239999999999988
283 Cu 3.539999999999992 19.469999999999988 1.769999999999993
284 Cu 5.309999999999992 17.69999999999999 1.769999999999993
285 Cu 3.539999999999992 17.69999999999999 3.539999999999992
286 Cu 3.539999999999992 19.469999999999988 5.309999999999992
287 Cu 5.309999999999992 17.69999999999999 5.309999999999992
288 Cu 5.309999999999992 19.469999999999988 3.539999999999992
289 Cu 3.539999999999992 17.69999999999999 7.079999999999991
290 Cu 3.539999999999992 19.469999999999988 8.84999999999999
291 Cu 5.309999999999992 17.69999999999999 8.84999999999999
292 Cu 5.309999999999992 19.469999999999988 7.079999999999991
293 Cu 3.539999999999992 17.69999999999999 10.61999999999999
294 Cu 3.539999999999992 19.469999999999988 12.38999999999999
295 Cu 5.309999999999992 17.69999999999999 12.38999999999999
296 Cu 5.309999999999992 19.469999999999988 10.61999999999999
297 Cu 3.539999999999992 17.69999999999999 14.15999999999999
298 Cu 3.539999999999992 19.469999999999988 15.929999999999989
299 Cu 5.309999999999992 17.69999999999999 15.929999999999989
300 Cu 5.309999999999992 19.469999999999988 14.15999999999999
301 Cu 3.539999999999992 17.69999999999999 17.69999999999999
302 Cu 3.539999999999992 19.469999999999988 19.469999999999988
303 Cu 5.309999999999992 17.69999999999999 19.469999999999988
304 Cu 5.309999999999992 19.469999999999988 17.69999999999999
305 Cu 3.539999999999992 17.69999999999999 21.239999999999988
306 Cu 5.309999999999992 19.469999999999988 21.239999999999988
307 Cu 7.079999999999991 19.469999999999988 1.769999999999993
308 Cu 8.84999999999999 17.69999999999999 1.769999999999993
309 Cu 7.079999999999991 17.69999999999999 3.539999999999992
310 Cu 7.079999999999991 19.469999999999988 5.309999999999992
311 Cu 8.84999999999999 17.69999999999999 5.309999999999992
312 Cu 8.84999999999999 19.469999999999988 3.539999999999992
313 Cu 7.079999999999991 17.69999999999999 7.079999999999991
314 Cu 7.079999999999991 19.469999999999988 8.84999999999999
315 Cu 8.84999999999999 17.69999999999999 8.84999999999999
316 Cu 8.84999999999999 19.469999999999988 7.079999999999991
317 Cu 7.079999999999991 17.69999999999999 10.61999999999999
318 Cu 7.079999999999991 19.469999999999988 12.38999999999999
319 Cu 8.84999999999999 17.69999999999999 12.38999999999999
320 Cu 8.84999999999999 19.469999999999988 10.61999999999999
321 Cu 7.079999999999991 17.69999999999999 14.15999999999999
322 Cu 7.079999999999991 19.469999999999988 15.929999999999989
323 Cu 8.84999999999999 17.69999999999999 15.929999999999989
324 Cu 8.84999999999999 19.469999999999988 14.15999999999999
325 Cu 7.079999999999991 17.69999999999999 17.69999999999999
326 Cu 7.079999999999991 19.469999999999988 19.469999999999988
327 Cu 8.84999999999999 17.69999999999999 19.469999999999988
328 Cu 8.84999999999999 19.469999999999988 17.69999999999999
329 Cu 7.079999999999991 17.69999999999999 21.239999999999988
330 Cu 8.84999999999999 19.469999999999988 21.239999999999988
331 Cu 1.769999999999993 21.239999999999988 1.769999999999993
332 Cu 1.769999999999993 21.239999999999988 5.309999999999992
333 Cu 1.769999999999993 21.239999999999988 8.84999999999999
334 Cu 1.769999999999993 21.239999999999988 12.38999999999999
335 Cu 1.769999999999993 21.239999999999988 15.929999999999989
336 Cu 1.769999999999993 21.239999999999988 19.469999999999988
337 Cu 5.309999999999992 21.239999999999988 1.769999999999993
338 Cu 3.539999999999992 21.239999999999988 3.539999999999992
339 Cu 5.309999999999992 21.239999999999988 5.309999999999992
340 Cu 3.539999999999992 21.239999999999988 7.079999999999991
341 Cu 5.309999999999992 21.239999999999988 8.84999999999999
342 Cu 3.539999999999992 21.239999999999988 10.61999999999999
343 Cu 5.309999999999992 21.239999999999988 12.38999999999999
344 Cu 3.539999999999992 21.239999999999988 14.15999999999999
345 Cu 5.309999999999992 21.239999999999988 15.929999999999989
346 Cu 3.539999999999992 21.239999999999988 17.69999999999999
347 Cu 5.309999999999992 21.239999999999988 19.469999999999988
348 Cu 3.539999999999992 21.239999999999988 21.239999999999988
349 Cu 8.84999999999999 21.239999999999988 1.769999999999993
350 Cu 7.079999999999991 21.239999999999988 3.539999999999992
351 Cu 8.84999999999999 21.239999999999988 5.309999999999992
352 Cu 7.079999999999991 21.239999999999988 7.079999999999991
353 Cu 8.84999999999999 21.239999999999988 8.84999999999999
354 Cu 7.079999999999991 21.239999999999988 10.61999999999999
355 Cu 8.84999999999999 21.239999999999988 12.38999999999999
356 Cu 7.079999999999991 21.239999999999988 14.15999999999999
357 Cu 8.84999999999999 21.239999999999988 15.929999999999989
358 Cu 7.079999999999991 21.239999999999988 17.69999999999999
359 Cu 8.84999999999999 21.239999999999988 19.469999999999988
360 Cu 7.079999999999991 21.239999999999988 21.239999999999988
361 Cu 10.619999999999983 3.539999999999993 3.539999999999992
362 Cu 10.619999999999983 3.539999999999993 7.079999999999991
363 Cu 10.619999999999983 3.539999999999993 10.61999999999999
364 Cu 10.619999999999983 3.539999999999993 14.15999999999999
365 Cu 10.619999999999983 3.539999999999993 17.69999999999999
366 Cu 10.619999999999983 3.539999999999993 21.239999999999988
367 Cu 12.389999999999983 3.539999999999993 1.769999999999993
368 Cu 12.389999999999983 3.539999999999993 5.309999999999992
369 Cu 14.159999999999982 3.539999999999993 3.539999999999992
370 Cu 12.389999999999983 3.539999999999993 8.84999999999999
371 Cu 14.159999999999982 3.539999999999993 7.079999999999991
372 Cu 12.389999999999983 3.539999999999993 12.38999999999999
373 Cu 14.159999999999982 3.539999999999993 10.61999999999999
374 Cu 12.389999999999983 3.539999999999993 15.929999999999989
375 Cu 14.159999999999982 3.539999999999993 14.15999999999999
376 Cu 12.389999999999983 3.539999999999993 19.469999999999988
377 Cu 14.159999999999982 3.539999999999993 17.69999999999999
378 Cu 14.159999999999982 3.539999999999993 21.239999999999988
379 Cu 15.929999999999982 3.539999999999993 1.769999999999993
380 Cu 15.929999999999982 3.539999999999993 5.309999999999992
381 Cu 17.69999999999998 3.539999999999993 3.539999999999992
382 Cu 15.929999999999982 3.539999999999993 8.84999999999999
383 Cu 17.69999999999998 3.539999999999993 7.079999999999991
384 Cu 15.929999999999982 3.539999999999993 12.38999999999999
385 Cu 17.69999999999998 3.539999999999993 10.61999999999999
386 Cu 15.929999999999982 3.539999999999993 15.929999999999989
387 Cu 17.69999999999998 3.539999999999993 14.15999999999999
388 Cu 15.929999999999982 3.539999999999993 19.469999999999988
389 Cu 17.69999999999998 3.539999999999993 17.69999999999999
390 Cu 17.69999999999998 3.539999999999993 21.239999999999988
391 Cu 19.46999999999998 3.539999999999993 1.769999999999993
392 Cu 19.46999999999998 3.539999999999993 5.309999999999992
393 Cu 19.46999999999998 3.539999999999993 8.84999999999999
394 Cu 19.46999999999998 3.539999999999993 12.38999999999999
395 Cu 19.46999999999998 3.539999999999993 15.929999999999989
396 Cu 19.46999999999998 3.539999999999993 19.469999999999988
397 Cu 10.619999999999983 5.309999999999992 1.769999999999993
398 Cu 10.619999999999983 5.309999999999992 5.309999999999992
399 Cu 10.619999999999983 7.079999999999991 3.539999999999992
400 Cu 10.619999999999983 5.309999999999992 8.84999999999999
401 Cu 10.619999999999983 7.079999999999991 7.079999999999991
402 Cu 10.619999999999983 5.309999999999992 12.38999999999999
403 Cu 10.619999999999983 7.079999999999991 10.61999999999999
404 Cu 10.619999999999983 5.309999999999992 15.929999999999989
405 Cu 10.619999999999983 7.079999999999991 14.15999999999999
406 Cu 10.619999999999983 5.309999999999992 19.469999999999988
407 Cu 10.619999999999983 7.079999999999991 17.69999999999999
408 Cu 10.619999999999983 7.079999999999991 21.239999999999988
409 Cu 12.389999999999983 7.079999999999991 1.769999999999993
410 Cu 14.159999999999982 5.309999999999992 1.769999999999993
411 Cu 12.389999999999983 5.309999999999992 3.539999999999992
412 Cu 12.389999999999983 7.079999999999991 5.309999999999992
413 Cu 14.159999999999982 5.309999999999992 5.309999999999992
414 Cu 14.159999999999982 7.079999999999991 3.539999999999992
415 Cu 12.389999999999983 5.309999999999992 7.079999999999991
416 Cu 12.389999999999983 7.079999999999991 8.84999999999999
417 Cu 14.159999999999982 5.309999999999992 8.84999999999999
418 Cu 14.159999999999982 7.079999999999991 7.079999999999991
419 Cu 12.389999999999983 5.309999999999992 10.61999999999999
420 Cu 12.389999999999983 7.079999999999991 12.38999999999999
421 Cu 14.159999999999982 5.309999999999992 12.38999999999999
422 Cu 14.159999999999982 7.079999999999991 10.61999999999999
423 Cu 12.389999999999983 5.309999999999992 14.15999999999999
424 Cu 12.389999999999983 7.079999999999991 15.929999999999989
425 Cu 14.159999999999982 5.309999999999992 15.929999999999989
426 Cu 14.159999999999982 7.079999999999991 14.15999999999999
427 Cu 12.389999999999983 5.309999999999992 17.69999999999999
428 Cu 12.389999999999983 7.079999999999991 19.469999999999988
429 Cu 14.159999999999982 5.309999999999992 19.469999999999988
430 Cu 14.159999999999982 7.079999999999991 17.69999999999999
431 Cu 12.389999999999983 5.309999999999992 21.239999999999988
432 Cu 14.159999999999982 7.079999999999991 21.239999999999988
433 Cu 15.929999999999982 7.079999999999991 1.769999999999993
434 Cu 17.69999999999998 5.309999999999992 1.769999999999993
435 Cu 15.929999999999982 5.309999999999992 3.539999999999992
436 Cu 15.929999999999982 7.079999999999991 5.309999999999992
437 Cu 17.69999999999998 5.309999999999992 5.309999999999992
438 Cu 17.69999999999998 7.079999999999991 3.539999999999992
439 Cu 15.929999999999982 5.309999999999992 7.079999999999991
440 Cu 15.929999999999982 7.079999999999991 8.84999999999999
441 Cu 17.69999999999998 5.309999999999992 8.84999999999999
442 Cu 17.69999999999998 7.079999999999991 7.079999999999991
443 Cu 15.929999999999982 5.309999999999992 10.61999999999999
444 Cu 15.929999999999982 7.079999999999991 12.38999999999999
445 Cu 17.69999999999998 5.309999999999992 12.38999999999999
446 Cu 17.69999999999998 7.079999999999991 10.61999999999999
447 Cu 15.929999999999982 5.309999999999992 14.15999999999999
448 Cu 15.929999999999982 7.079999999999991 15.929999999999989
449 Cu 17.69999999999998 5.309999999999992 15.929999999999989
450 Cu 17.69999999999998 7.079999999999991 14.15999999999999
451 Cu 15.929999999999982 5.309999999999992 17.69999999999999
452 Cu 15.929999999999982 7.079999999999991 19.469999999999988
453 Cu 17.69999999999998 5.309999999999992 19.469999999999988
454 Cu 17.69999999999998 7.079999999999991 17.69999999999999
455 Cu 15.929999999999982 5.309999999999992 21.239999999999988
456 Cu 17.69999999999998 7.079999999999991 21.239999999999988
457 Cu 19.46999999999998 7.079999999999991 1.769999999999993
458 Cu 19.46999999999998 5.309999999999992 3.539999999999992
459 Cu 19.46999999999998 7.079999999999991 5.309999999999992
460 Cu 19.46999999999998 5.309999999999992 7.079999999999991
461 Cu 19.46999999999998 7.079999999999991 8.84999999999999
462 Cu 19.46999999999998 5.309999999999992 10.61999999999999
463 Cu 19.46999999999998 7.079999999999991 12.38999999999999
464 Cu 19.46999999999998 5.309999999999992 14.15999999999999
465 Cu 19.46999999999998 7.079999999999991 15.929999999999989
466 Cu 19.46999999999998 5.309999999999992 17.69999999999999
467 Cu 19.46999999999998 7.079999999999991 19.469999999999988
468 Cu 19.46999999999998 5.309999999999992 21.239999999999988
469 Cu 10.619999999999983 8.84999999999999 1.769999999999993
470 Cu 10.619999999999983 8.84999999999999 5.309999999999992
471 Cu 10.619999999999983 10.61999999999999 3.539999999999992
472 Cu 10.619999999999983 8.84999999999999 8.84999999999999
473 Cu 10.619999999999983 10.61999999999999 7.079999999999991
474 Cu 10.619999999999983 8.84999999999999 12.38999999999999
475 Cu 10.619999999999983 10.61999999999999 10.61999999999999
476 Cu 10.619999999999983 8.84999999999999 15.929999999999989
477 Cu 10.619999999999983 10.61999999999999 14.15999999999999
478 Cu 10.619999999999983 8.84999999999999 19.469999999999988
479 Cu 10.619999999999983 10.61999999999999 17.69999999999999
480 Cu 10.619999999999983 10.61999999999999 21.239999999999988
481 Cu 12.389999999999983 10.61999999999999 1.769999999999993
482 Cu 14.159999999999982 8.84999999999999 1.769999999999993
483 Cu 12.389999999999983 8.84999999999999 3.539999999999992
484 Cu 12.389999999999983 10.61999999999999 5.309999999999992
485 Cu 14.159999999999982 8.84999999999999 5.309999999999992
486 Cu 14.159999999999982 10.61999999999999 3.539999999999992
487 Cu 12.389999999999983 8.84999999999999 7.079999999999991
488 Cu 12.389999999999983 10.61999999999999 8.84999999999999