Crystalline 1 atoms

792 atoms
1 atom types
-10.0 30.0 xlo xhi
0.0 21.240000000000002 ylo yhi
0.0 21.240000000000002 zlo zhi

Atoms

1 1 1.769999999999993 1.769999999999993 3.539999999999992
2 1 1.769999999999993 1.769999999999993 7.079999999999991
3 1 1.769999999999993 1.769999999999993 10.61999999999999
4 1 1.769999999999993 1.769999999999993 14.15999999999999
5 1 1.769999999999993 1.769999999999993 17.69999999999999
6 1 1.769999999999993 1.769999999999993 21.239999999999988
7 1 3.539999999999992 1.769999999999993 1.769999999999993
8 1 3.539999999999992 1.769999999999993 5.309999999999992
9 1 5.309999999999992 1.769999999999993 3.539999999999992
10 1 3.539999999999992 1.769999999999993 8.84999999999999
11 1 5.309999999999992 1.769999999999993 7.079999999999991
12 1 3.539999999999992 1.769999999999993 12.38999999999999
13 1 5.309999999999992 1.769999999999993 10.61999999999999
14 1 3.539999999999992 1.769999999999993 15.929999999999989
15 1 5.309999999999992 1.769999999999993 14.15999999999999
16 1 3.539999999999992 1.769999999999993 19.469999999999988
17 1 5.309999999999992 1.769999999999993 17.69999999999999
18 1 5.309999999999992 1.769999999999993 21.239999999999988
19 1 7.079999999999991 1.769999999999993 1.769999999999993
20 1 7.079999999999991 1.769999999999993 5.309999999999992
21 1 8.84999999999999 1.769999999999993 3.539999999999992
22 1 7.079999999999991 1.769999999999993 8.84999999999999
23 1 8.84999999999999 1.769999999999993 7.079999999999991
24 1 7.079999999999991 1.769999999999993 12.38999999999999
25 1 8.84999999999999 1.769999999999993 10.61999999999999
26 1 7.079999999999991 1.769999999999993 15.929999999999989
27 1 8.84999999999999 1.769999999999993 14.15999999999999
28 1 7.079999999999991 1.769999999999993 19.469999999999988
29 1 8.84999999999999 1.769999999999993 17.69999999999999
30 1 8.84999999999999 1.769999999999993 21.239999999999988
31 1 1.769999999999993 3.539999999999992 1.769999999999993
32 1 1.769999999999993 3.539999999999992 5.309999999999992
33 1 1.769999999999993 5.309999999999992 3.539999999999992
34 1 1.769999999999993 3.539999999999992 8.84999999999999
35 1 1.769999999999993 5.309999999999992 7.079999999999991
36 1 1.769999999999993 3.539999999999992 12.38999999999999
37 1 1.769999999999993 5.309999999999992 10.61999999999999
38 1 1.769999999999993 3.539999999999992 15.929999999999989
39 1 1.769999999999993 5.309999999999992 14.15999999999999
40 1 1.769999999999993 3.539999999999992 19.469999999999988
41 1 1.769999999999993 5.309999999999992 17.69999999999999
42 1 1.769999999999993 5.309999999999992 21.239999999999988
43 1 3.539999999999992 5.309999999999992 1.769999999999993
44 1 5.309999999999992 3.539999999999992 1.769999999999993
45 1 3.539999999999992 3.539999999999992 3.539999999999992
46 1 3.539999999999992 5.309999999999992 5.309999999999992
47 1 5.309999999999992 3.539999999999992 5.309999999999992
48 1 5.309999999999992 5.309999999999992 3.539999999999992
49 1 3.539999999999992 3.539999999999992 7.079999999999991
50 1 3.539999999999992 5.309999999999992 8.84999999999999
51 1 5.309999999999992 3.539999999999992 8.84999999999999
52 1 5.309999999999992 5.309999999999992 7.079999999999991
53 1 3.539999999999992 3.539999999999992 10.61999999999999
54 1 3.539999999999992 5.309999999999992 12.38999999999999
55 1 5.309999999999992 3.539999999999992 12.38999999999999
56 1 5.309999999999992 5.309999999999992 10.61999999999999
57 1 3.539999999999992 3.539999999999992 14.15999999999999
58 1 3.539999999999992 5.309999999999992 15.929999999999989
59 1 5.309999999999992 3.539999999999992 15.929999999999989
60 1 5.309999999999992 5.309999999999992 14.15999999999999
61 1 3.539999999999992 3.539999999999992 17.69999999999999
62 1 3.539999999999992 5.309999999999992 19.469999999999988
63 1 5.309999999999992 3.539999999999992 19.469999999999988
64 1 5.309999999999992 5.309999999999992 17.69999999999999
65 1 3.539999999999992 3.539999999999992 21.239999999999988
66 1 5.309999999999992 5.309999999999992 21.239999999999988
67 1 7.079999999999991 5.309999999999992 1.769999999999993
68 1 8.84999999999999 3.539999999999992 1.769999999999993
69 1 7.079999999999991 3.539999999999992 3.539999999999992
70 1 7.079999999999991 5.309999999999992 5.309999999999992
71 1 8.84999999999999 3.539999999999992 5.309999999999992
72 1 8.84999999999999 5.309999999999992 3.539999999999992
73 1 7.079999999999991 3.539999999999992 7.079999999999991
74 1 7.079999999999991 5.309999999999992 8.84999999999999
75 1 8.84999999999999 3.539999999999992 8.84999999999999
76 1 8.84999999999999 5.309999999999992 7.079999999999991
77 1 7.079999999999991 3.539999999999992 10.61999999999999
78 1 7.079999999999991 5.309999999999992 12.38999999999999
79 1 8.84999999999999 3.539999999999992 12.38999999999999
80 1 8.84999999999999 5.309999999999992 10.61999999999999
81 1 7.079999999999991 3.539999999999992 14.15999999999999
82 1 7.079999999999991 5.309999999999992 15.929999999999989
83 1 8.84999999999999 3.539999999999992 15.929999999999989
84 1 8.84999999999999 5.309999999999992 14.15999999999999
85 1 7.079999999999991 3.539999999999992 17.69999999999999
86 1 7.079999999999991 5.309999999999992 19.469999999999988
87 1 8.84999999999999 3.539999999999992 19.469999999999988
88 1 8.84999999999999 5.309999999999992 17.69999999999999
89 1 7.079999999999991 3.539999999999992 21.239999999999988
90 1 8.84999999999999 5.309999999999992 21.239999999999988
91 1 1.769999999999993 7.079999999999991 1.769999999999993
92 1 1.769999999999993 7.079999999999991 5.309999999999992
93 1 1.769999999999993 8.84999999999999 3.539999999999992
94 1 1.769999999999993 7.079999999999991 8.84999999999999
95 1 1.769999999999993 8.84999999999999 7.079999999999991
96 1 1.769999999999993 7.079999999999991 12.38999999999999
97 1 1.769999999999993 8.84999999999999 10.61999999999999
98 1 1.769999999999993 7.079999999999991 15.929999999999989
99 1 1.769999999999993 8.84999999999999 14.15999999999999
100 1 1.769999999999993 7.079999999999991 19.469999999999988
101 1 1.769999999999993 8.84999999999999 17.69999999999999
102 1 1.769999999999993 8.84999999999999 21.239999999999988
103 1 3.539999999999992 8.84999999999999 1.769999999999993
104 1 5.309999999999992 7.079999999999991 1.769999999999993
105 1 3.539999999999992 7.079999999999991 3.539999999999992
106 1 3.539999999999992 8.84999999999999 5.309999999999992
107 1 5.309999999999992 7.079999999999991 5.309999999999992
108 1 5.309999999999992 8.84999999999999 3.539999999999992
109 1 3.539999999999992 7.079999999999991 7.079999999999991
110 1 3.539999999999992 8.84999999999999 8.84999999999999
111 1 5.309999999999992 7.079999999999991 8.84999999999999
112 1 5.309999999999992 8.84999999999999 7.079999999999991
113 1 3.539999999999992 7.079999999999991 10.61999999999999
114 1 3.539999999999992 8.84999999999999 12.38999999999999
115 1 5.309999999999992 7.079999999999991 12.38999999999999
116 1 5.309999999999992 8.84999999999999 10.61999999999999
117 1 3.539999999999992 7.079999999999991 14.15999999999999
118 1 3.539999999999992 8.84999999999999 15.929999999999989
119 1 5.309999999999992 7.079999999999991 15.929999999999989
120 1 5.309999999999992 8.84999999999999 14.15999999999999
121 1 3.539999999999992 7.079999999999991 17.69999999999999
122 1 3.539999999999992 8.84999999999999 19.469999999999988
123 1 5.309999999999992 7.079999999999991 19.469999999999988
124 1 5.309999999999992 8.84999999999999 17.69999999999999
125 1 3.539999999999992 7.079999999999991 21.239999999999988
126 1 5.309999999999992 8.84999999999999 21.239999999999988
127 1 7.079999999999991 8.84999999999999 1.769999999999993
128 1 8.84999999999999 7.079999999999991 1.769999999999993
129 1 7.079999999999991 7.079999999999991 3.539999999999992
130 1 7.079999999999991 8.84999999999999 5.309999999999992
131 1 8.84999999999999 7.079999999999991 5.309999999999992
132 1 8.84999999999999 8.84999999999999 3.539999999999992
133 1 7.079999999999991 7.079999999999991 7.079999999999991
134 1 7.079999999999991 8.84999999999999 8.84999999999999
135 1 8.84999999999999 7.079999999999991 8.84999999999999
136 1 8.84999999999999 8.84999999999999 7.079999999999991
137 1 7.079999999999991 7.079999999999991 10.61999999999999
138 1 7.079999999999991 8.84999999999999 12.38999999999999
139 1 8.84999999999999 7.079999999999991 12.38999999999999
140 1 8.84999999999999 8.84999999999999 10.61999999999999
141 1 7.079999999999991 7.079999999999991 14.15999999999999
142 1 7.079999999999991 8.84999999999999 15.929999999999989
143 1 8.84999999999999 7.079999999999991 15.929999999999989
144 1 8.84999999999999 8.84999999999999 14.15999999999999
145 1 7.079999999999991 7.079999999999991 17.69999999999999
146 1 7.079999999999991 8.84999999999999 19.469999999999988
147 1 8.84999999999999 7.079999999999991 19.469999999999988
148 1 8.84999999999999 8.84999999999999 17.69999999999999
149 1 7.079999999999991 7.079999999999991 21.239999999999988
150 1 8.84999999999999 8.84999999999999 21.239999999999988
151 1 1.769999999999993 10.61999999999999 1.769999999999993
152 1 1.769999999999993 10.61999999999999 5.309999999999992
153 1 1.769999999999993 12.38999999999999 3.539999999999992
154 1 1.769999999999993 10.61999999999999 8.84999999999999
155 1 1.769999999999993 12.38999999999999 7.079999999999991
156 1 1.769999999999993 10.61999999999999 12.38999999999999
157 1 1.769999999999993 12.38999999999999 10.61999999999999
158 1 1.769999999999993 10.61999999999999 15.929999999999989
159 1 1.769999999999993 12.38999999999999 14.15999999999999
160 1 1.769999999999993 10.61999999999999 19.469999999999988
161 1 1.769999999999993 12.38999999999999 17.69999999999999
162 1 1.769999999999993 12.38999999999999 21.239999999999988
163 1 3.539999999999992 12.38999999999999 1.769999999999993
164 1 5.309999999999992 10.61999999999999 1.769999999999993
165 1 3.539999999999992 10.61999999999999 3.539999999999992
166 1 3.539999999999992 12.38999999999999 5.309999999999992
167 1 5.309999999999992 10.61999999999999 5.309999999999992
168 1 5.309999999999992 12.38999999999999 3.539999999999992
169 1 3.539999999999992 10.61999999999999 7.079999999999991
170 1 3.539999999999992 12.38999999999999 8.84999999999999
171 1 5.309999999999992 10.61999999999999 8.84999999999999
172 1 5.309999999999992 12.38999999999999 7.079999999999991
173 1 3.539999999999992 10.61999999999999 10.61999999999999
174 1 3.539999999999992 12.38999999999999 12.38999999999999
175 1 5.309999999999992 10.61999999999999 12.38999999999999
176 1 5.309999999999992 12.38999999999999 10.61999999999999
177 1 3.539999999999992 10.61999999999999 14.15999999999999
178 1 3.539999999999992 12.38999999999999 15.929999999999989
179 1 5.309999999999992 10.61999999999999 15.929999999999989
180 1 5.309999999999992 12.38999999999999 14.15999999999999
181 1 3.539999999999992 10.61999999999999 17.69999999999999
182 1 3.539999999999992 12.38999999999999 19.469999999999988
183 1 5.309999999999992 10.61999999999999 19.469999999999988
184 1 5.309999999999992 12.38999999999999 17.69999999999999
185 1 3.539999999999992 10.61999999999999 21.239999999999988
186 1 5.309999999999992 12.38999999999999 21.239999999999988
187 1 7.079999999999991 12.38999999999999 1.769999999999993
188 1 8.84999999999999 10.61999999999999 1.769999999999993
189 1 7.079999999999991 10.61999999999999 3.539999999999992
190 1 7.079999999999991 12.38999999999999 5.309999999999992
191 1 8.84999999999999 10.61999999999999 5.309999999999992
192 1 8.84999999999999 12.38999999999999 3.539999999999992
193 1 7.079999999999991 10.61999999999999 7.079999999999991
194 1 7.079999999999991 12.38999999999999 8.84999999999999
195 1 8.84999999999999 10.61999999999999 8.84999999999999
196 1 8.84999999999999 12.38999999999999 7.079999999999991
197 1 7.079999999999991 10.61999999999999 10.61999999999999
198 1 7.079999999999991 12.38999999999999 12.38999999999999
199 1 8.84999999999999 10.61999999999999 12.38999999999999
200 1 8.84999999999999 12.38999999999999 10.61999999999999
201 1 7.079999999999991 10.61999999999999 14.15999999999999
202 1 7.079999999999991 12.38999999999999 15.929999999999989
203 1 8.84999999999999 10.61999999999999 15.929999999999989
204 1 8.84999999999999 12.38999999999999 14.15999999999999
205 1 7.079999999999991 10.61999999999999 17.69999999999999
206 1 7.079999999999991 12.38999999999999 19.469999999999988
207 1 8.84999999999999 10.61999999999999 19.469999999999988
208 1 8.84999999999999 12.38999999999999 17.69999999999999
209 1 7.079999999999991 10.61999999999999 21.239999999999988
210 1 8.84999999999999 12.38999999999999 21.239999999999988
211 1 1.769999999999993 14.15999999999999 1.769999999999993
212 1 1.769999999999993 14.15999999999999 5.309999999999992
213 1 1.769999999999993 15.929999999999989 3.539999999999992
214 1 1.769999999999993 14.15999999999999 8.84999999999999
215 1 1.769999999999993 15.929999999999989 7.079999999999991
216 1 1.769999999999993 14.15999999999999 12.38999999999999
217 1 1.769999999999993 15.929999999999989 10.61999999999999
218 1 1.769999999999993 14.15999999999999 15.929999999999989
219 1 1.769999999999993 15.929999999999989 14.15999999999999
220 1 1.769999999999993 14.15999999999999 19.469999999999988
221 1 1.769999999999993 15.929999999999989 17.69999999999999
222 1 1.769999999999993 15.929999999999989 21.239999999999988
223 1 3.539999999999992 15.929999999999989 1.769999999999993
224 1 5.309999999999992 14.15999999999999 1.769999999999993
225 1 3.539999999999992 14.15999999999999 3.539999999999992
226 1 3.539999999999992 15.929999999999989 5.309999999999992
227 1 5.309999999999992 14.15999999999999 5.309999999999992
228 1 5.309999999999992 15.929999999999989 3.539999999999992
229 1 3.539999999999992 14.15999999999999 7.079999999999991
230 1 3.539999999999992 15.929999999999989 8.84999999999999
231 1 5.309999999999992 14.15999999999999 8.84999999999999
232 1 5.309999999999992 15.929999999999989 7.079999999999991
233 1 3.539999999999992 14.15999999999999 10.61999999999999
234 1 3.539999999999992 15.929999999999989 12.38999999999999
235 1 5.309999999999992 14.15999999999999 12.38999999999999
236 1 5.309999999999992 15.929999999999989 10.61999999999999
237 1 3.539999999999992 14.15999999999999 14.15999999999999
238 1 3.539999999999992 15.929999999999989 15.929999999999989
239 1 5.309999999999992 14.15999999999999 15.929999999999989
240 1 5.309999999999992 15.929999999999989 14.15999999999999
241 1 3.539999999999992 14.15999999999999 17.69999999999999
242 1 3.539999999999992 15.929999999999989 19.469999999999988
243 1 5.309999999999992 14.15999999999999 19.469999999999988
244 1 5.309999999999992 15.929999999999989 17.69999999999999
245 1 3.539999999999992 14.15999999999999 21.239999999999988
246 1 5.309999999999992 15.929999999999989 21.239999999999988
247 1 7.079999999999991 15.929999999999989 1.769999999999993
248 1 8.84999999999999 14.15999999999999 1.769999999999993
249 1 7.079999999999991 14.15999999999999 3.539999999999992
250 1 7.079999999999991 15.929999999999989 5.309999999999992
251 1 8.84999999999999 14.15999999999999 5.309999999999992
252 1 8.84999999999999 15.929999999999989 3.539999999999992
253 1 7.079999999999991 14.15999999999999 7.079999999999991
254 1 7.079999999999991 15.929999999999989 8.84999999999999
255 1 8.84999999999999 14.15999999999999 8.84999999999999
256 1 8.84999999999999 15.929999999999989 7.079999999999991
257 1 7.079999999999991 14.15999999999999 10.61999999999999
258 1 7.079999999999991 15.929999999999989 12.38999999999999
259 1 8.84999999999999 14.15999999999999 12.38999999999999
260 1 8.84999999999999 15.929999999999989 10.61999999999999
261 1 7.079999999999991 14.15999999999999 14.15999999999999
262 1 7.079999999999991 15.929999999999989 15.929999999999989
263 1 8.84999999999999 14.15999999999999 15.929999999999989
264 1 8.84999999999999 15.929999999999989 14.15999999999999
265 1 7.079999999999991 14.15999999999999 17.69999999999999
266 1 7.079999999999991 15.929999999999989 19.469999999999988
267 1 8.84999999999999 14.15999999999999 19.469999999999988
268 1 8.84999999999999 15.929999999999989 17.69999999999999
269 1 7.079999999999991 14.15999999999999 21.239999999999988
270 1 8.84999999999999 15.929999999999989 21.239999999999988
271 1 1.769999999999993 17.69999999999999 1.769999999999993
272 1 1.769999999999993 17.69999999999999 5.309999999999992
273 1 1.769999999999993 19.469999999999988 3.539999999999992
274 1 1.769999999999993 17.69999999999999 8.84999999999999
275 1 1.769999999999993 19.469999999999988 7.079999999999991
276 1 1.769999999999993 17.69999999999999 12.38999999999999
277 1 1.769999999999993 19.469999999999988 10.61999999999999
278 1 1.769999999999993 17.69999999999999 15.929999999999989
279 1 1.769999999999993 19.469999999999988 14.15999999999999
280 1 1.769999999999993 17.69999999999999 19.469999999999988
281 1 1.769999999999993 19.469999999999988 17.69999999999999
282 1 1.769999999999993 19.469999999999988 21.239999999999988
283 1 3.539999999999992 19.469999999999988 1.769999999999993
284 1 5.309999999999992 17.69999999999999 1.769999999999993
285 1 3.539999999999992 17.69999999999999 3.539999999999992
286 1 3.539999999999992 19.469999999999988 5.309999999999992
287 1 5.309999999999992 17.69999999999999 5.309999999999992
288 1 5.309999999999992 19.469999999999988 3.539999999999992
289 1 3.539999999999992 17.69999999999999 7.079999999999991
290 1 3.539999999999992 19.469999999999988 8.84999999999999
291 1 5.309999999999992 17.69999999999999 8.84999999999999
292 1 5.309999999999992 19.469999999999988 7.079999999999991
293 1 3.539999999999992 17.69999999999999 10.61999999999999
294 1 3.539999999999992 19.469999999999988 12.38999999999999
295 1 5.309999999999992 17.69999999999999 12.38999999999999
296 1 5.309999999999992 19.469999999999988 10.61999999999999
297 1 3.539999999999992 17.69999999999999 14.15999999999999
298 1 3.539999999999992 19.469999999999988 15.929999999999989
299 1 5.309999999999992 17.69999999999999 15.929999999999989
300 1 5.309999999999992 19.469999999999988 14.15999999999999
301 1 3.539999999999992 17.69999999999999 17.69999999999999
302 1 3.539999999999992 19.469999999999988 19.469999999999988
303 1 5.309999999999992 17.69999999999999 19.469999999999988
304 1 5.309999999999992 19.469999999999988 17.69999999999999
305 1 3.539999999999992 17.69999999999999 21.239999999999988
306 1 5.309999999999992 19.469999999999988 21.239999999999988
307 1 7.079999999999991 19.469999999999988 1.769999999999993
308 1 8.84999999999999 17.69999999999999 1.769999999999993
309 1 7.079999999999991 17.69999999999999 3.539999999999992
310 1 7.079999999999991 19.469999999999988 5.309999999999992
311 1 8.84999999999999 17.69999999999999 5.309999999999992
312 1 8.84999999999999 19.469999999999988 3.539999999999992
313 1 7.079999999999991 17.69999999999999 7.079999999999991
314 1 7.079999999999991 19.469999999999988 8.84999999999999
315 1 8.84999999999999 17.69999999999999 8.84999999999999
316 1 8.84999999999999 19.469999999999988 7.079999999999991
317 1 7.079999999999991 17.69999999999999 10.61999999999999
318 1 7.079999999999991 19.469999999999988 12.38999999999999
319 1 8.84999999999999 17.69999999999999 12.38999999999999
320 1 8.84999999999999 19.469999999999988 10.61999999999999
321 1 7.079999999999991 17.69999999999999 14.15999999999999
322 1 7.079999999999991 19.469999999999988 15.929999999999989
323 1 8.84999999999999 17.69999999999999 15.929999999999989
324 1 8.84999999999999 19.469999999999988 14.15999999999999
325 1 7.079999999999991 17.69999999999999 17.69999999999999
326 1 7.079999999999991 19.469999999999988 19.469999999999988
327 1 8.84999999999999 17.69999999999999 19.469999999999988
328 1 8.84999999999999 19.469999999999988 17.69999999999999
329 1 7.079999999999991 17.69999999999999 21.239999999999988
330 1 8.84999999999999 19.469999999999988 21.239999999999988
331 1 1.769999999999993 21.239999999999988 1.769999999999993
332 1 1.769999999999993 21.239999999999988 5.309999999999992
333 1 1.769999999999993 21.239999999999988 8.84999999999999
334 1 1.769999999999993 21.239999999999988 12.38999999999999
335 1 1.769999999999993 21.239999999999988 15.929999999999989
336 1 1.769999999999993 21.239999999999988 19.469999999999988
337 1 5.309999999999992 21.239999999999988 1.769999999999993
338 1 3.539999999999992 21.239999999999988 3.539999999999992
339 1 5.309999999999992 21.239999999999988 5.309999999999992
340 1 3.539999999999992 21.239999999999988 7.079999999999991
341 1 5.309999999999992 21.239999999999988 8.84999999999999
342 1 3.539999999999992 21.239999999999988 10.61999999999999
343 1 5.309999999999992 21.239999999999988 12.38999999999999
344 1 3.539999999999992 21.239999999999988 14.15999999999999
345 1 5.309999999999992 21.239999999999988 15.929999999999989
346 1 3.539999999999992 21.239999999999988 17.69999999999999
347 1 5.309999999999992 21.239999999999988 19.469999999999988
348 1 3.539999999999992 21.239999999999988 21.239999999999988
349 1 8.84999999999999 21.239999999999988 1.769999999999993
350 1 7.079999999999991 21.239999999999988 3.539999999999992
351 1 8.84999999999999 21.239999999999988 5.309999999999992
352 1 7.079999999999991 21.239999999999988 7.079999999999991
353 1 8.84999999999999 21.239999999999988 8.84999999999999
354 1 7.079999999999991 21.239999999999988 10.61999999999999
355 1 8.84999999999999 21.239999999999988 12.38999999999999
356 1 7.079999999999991 21.239999999999988 14.15999999999999
357 1 8.84999999999999 21.239999999999988 15.929999999999989
358 1 7.079999999999991 21.239999999999988 17.69999999999999
359 1 8.84999999999999 21.239999999999988 19.469999999999988
360 1 7.079999999999991 21.239999999999988 21.239999999999988
361 1 10.619999999999983 3.539999999999993 3.539999999999992
362 1 10.619999999999983 3.539999999999993 7.079999999999991
363 1 10.619999999999983 3.539999999999993 10.61999999999999
364 1 10.619999999999983 3.539999999999993 14.15999999999999
365 1 10.619999999999983 3.539999999999993 17.69999999999999
366 1 10.619999999999983 3.539999999999993 21.239999999999988
367 1 12.389999999999983 3.539999999999993 1.769999999999993
368 1 12.389999999999983 3.539999999999993 5.309999999999992
369 1 14.159999999999982 3.539999999999993 3.539999999999992
370 1 12.389999999999983 3.539999999999993 8.84999999999999
371 1 14.159999999999982 3.539999999999993 7.079999999999991
372 1 12.389999999999983 3.539999999999993 12.38999999999999
373 1 14.159999999999982 3.539999999999993 10.61999999999999
374 1 12.389999999999983 3.539999999999993 15.929999999999989
375 1 14.159999999999982 3.539999999999993 14.15999999999999
376 1 12.389999999999983 3.539999999999993 19.469999999999988
377 1 14.159999999999982 3.539999999999993 17.69999999999999
378 1 14.159999999999982 3.539999999999993 21.239999999999988
379 1 15.929999999999982 3.539999999999993 1.769999999999993
380 1 15.929999999999982 3.539999999999993 5.309999999999992
381 1 17.69999999999998 3.539999999999993 3.539999999999992
382 1 15.929999999999982 3.539999999999993 8.84999999999999
383 1 17.69999999999998 3.539999999999993 7.079999999999991
384 1 15.929999999999982 3.539999999999993 12.38999999999999
385 1 17.69999999999998 3.539999999999993 10.61999999999999
386 1 15.929999999999982 3.539999999999993 15.929999999999989
387 1 17.69999999999998 3.539999999999993 14.15999999999999
388 1 15.929999999999982 3.539999999999993 19.469999999999988
389 1 17.69999999999998 3.539999999999993 17.69999999999999
390 1 17.69999999999998 3.539999999999993 21.239999999999988
391 1 19.46999999999998 3.539999999999993 1.769999999999993
392 1 19.46999999999998 3.539999999999993 5.309999999999992
393 1 19.46999999999998 3.539999999999993 8.84999999999999
394 1 19.46999999999998 3.539999999999993 12.38999999999999
395 1 19.46999999999998 3.539999999999993 15.929999999999989
396 1 19.46999999999998 3.539999999999993 19.469999999999988
397 1 10.619999999999983 5.309999999999992 1.769999999999993
398 1 10.619999999999983 5.309999999999992 5.309999999999992
399 1 10.619999999999983 7.079999999999991 3.539999999999992
400 1 10.619999999999983 5.309999999999992 8.84999999999999
401 1 10.619999999999983 7.079999999999991 7.079999999999991
402 1 10.619999999999983 5.309999999999992 12.38999999999999
403 1 10.619999999999983 7.079999999999991 10.61999999999999
404 1 10.619999999999983 5.309999999999992 15.929999999999989
405 1 10.619999999999983 7.079999999999991 14.15999999999999
406 1 10.619999999999983 5.309999999999992 19.469999999999988
407 1 10.619999999999983 7.079999999999991 17.69999999999999
408 1 10.619999999999983 7.079999999999991 21.239999999999988
409 1 12.389999999999983 7.079999999999991 1.769999999999993
410 1 14.159999999999982 5.309999999999992 1.769999999999993
411 1 12.389999999999983 5.309999999999992 3.539999999999992
412 1 12.389999999999983 7.079999999999991 5.309999999999992
413 1 14.159999999999982 5.309999999999992 5.309999999999992
414 1 14.159999999999982 7.079999999999991 3.539999999999992
415 1 12.389999999999983 5.309999999999992 7.079999999999991
416 1 12.389999999999983 7.079999999999991 8.84999999999999
417 1 14.159999999999982 5.309999999999992 8.84999999999999
418 1 14.159999999999982 7.079999999999991 7.079999999999991
419 1 12.389999999999983 5.309999999999992 10.61999999999999
420 1 12.389999999999983 7.079999999999991 12.38999999999999
421 1 14.159999999999982 5.309999999999992 12.38999999999999
422 1 14.159999999999982 7.079999999999991 10.61999999999999
423 1 12.389999999999983 5.309999999999992 14.15999999999999
424 1 12.389999999999983 7.079999999999991 15.929999999999989
425 1 14.159999999999982 5.309999999999992 15.929999999999989
426 1 14.159999999999982 7.079999999999991 14.15999999999999
427 1 12.389999999999983 5.309999999999992 17.69999999999999
428 1 12.389999999999983 7.079999999999991 19.469999999999988
429 1 14.159999999999982 5.309999999999992 19.469999999999988
430 1 14.159999999999982 7.079999999999991 17.69999999999999
431 1 12.389999999999983 5.309999999999992 21.239999999999988
432 1 14.159999999999982 7.079999999999991 21.239999999999988
433 1 15.929999999999982 7.079999999999991 1.769999999999993
434 1 17.69999999999998 5.309999999999992 1.769999999999993
435 1 15.929999999999982 5.309999999999992 3.539999999999992
436 1 15.929999999999982 7.079999999999991 5.309999999999992
437 1 17.69999999999998 5.309999999999992 5.309999999999992
438 1 17.69999999999998 7.079999999999991 3.539999999999992
439 1 15.929999999999982 5.309999999999992 7.079999999999991
440 1 15.929999999999982 7.079999999999991 8.84999999999999
441 1 17.69999999999998 5.309999999999992 8.84999999999999
442 1 17.69999999999998 7.079999999999991 7.079999999999991
443 1 15.929999999999982 5.309999999999992 10.61999999999999
444 1 15.929999999999982 7.079999999999991 12.38999999999999
445 1 17.69999999999998 5.309999999999992 12.38999999999999
446 1 17.69999999999998 7.079999999999991 10.61999999999999
447 1 15.929999999999982 5.309999999999992 14.15999999999999
448 1 15.929999999999982 7.079999999999991 15.929999999999989
449 1 17.69999999999998 5.309999999999992 15.929999999999989
450 1 17.69999999999998 7.079999999999991 14.15999999999999
451 1 15.929999999999982 5.309999999999992 17.69999999999999
452 1 15.929999999999982 7.079999999999991 19.469999999999988
453 1 17.69999999999998 5.309999999999992 19.469999999999988
454 1 17.69999999999998 7.079999999999991 17.69999999999999
455 1 15.929999999999982 5.309999999999992 21.239999999999988
456 1 17.69999999999998 7.079999999999991 21.239999999999988
457 1 19.46999999999998 7.079999999999991 1.769999999999993
458 1 19.46999999999998 5.309999999999992 3.539999999999992
459 1 19.46999999999998 7.079999999999991 5.309999999999992
460 1 19.46999999999998 5.309999999999992 7.079999999999991
461 1 19.46999999999998 7.079999999999991 8.84999999999999
462 1 19.46999999999998 5.309999999999992 10.61999999999999
463 1 19.46999999999998 7.079999999999991 12.38999999999999
464 1 19.46999999999998 5.309999999999992 14.15999999999999
465 1 19.46999999999998 7.079999999999991 15.929999999999989
466 1 19.46999999999998 5.309999999999992 17.69999999999999
467 1 19.46999999999998 7.079999999999991 19.469999999999988
468 1 19.46999999999998 5.309999999999992 21.239999999999988
469 1 10.619999999999983 8.84999999999999 1.769999999999993
470 1 10.619999999999983 8.84999999999999 5.309999999999992
471 1 10.619999999999983 10.61999999999999 3.539999999999992
472 1 10.619999999999983 8.84999999999999 8.84999999999999
473 1 10.619999999999983 10.61999999999999 7.079999999999991
474 1 10.619999999999983 8.84999999999999 12.38999999999999
475 1 10.619999999999983 10.61999999999999 10.61999999999999
476 1 10.619999999999983 8.84999999999999 15.929999999999989
477 1 10.619999999999983 10.61999999999999 14.15999999999999
478 1 10.619999999999983 8.84999999999999 19.469999999999988
479 1 10.619999999999983 10.61999999999999 17.69999999999999
480 1 10.619999999999983 10.61999999999999 21.239999999999988
481 1 12.389999999999983 10.61999999999999 1.769999999999993
482 1 14.159999999999982 8.84999999999999 1.769999999999993
483 1 12.389999999999983 8.84999999999999 3.539999999999992
484 1 12.389999999999983 10.61999999999999 5.309999999999992
485 1 14.159999999999982 8.84999999999999 5.309999999999992
486 1 14.159999999999982 10.61999999999999 3.539999999999992
487 1 12.389999999999983 8.84999999999999 7.079999999999991
488 1 12.389999999999983 10.61999999999999 8.84999999999999
489 1 14.159999999999982 8.84999999999999 8.84999999999999
490 1 14.159999999999982 10.61999999999999 7.079999999999991
491 1 12.389999999999983 8.84999999999999 10.61999999999999
492 1 12.389999999999983 10.61999999999999 12.38999999999999
493 1 14.159999999999982 8.84999999999999 12.38999999999999
494 1 14.159999999999982 10.61999999999999 10.61999999999999
495 1 12.389999999999983 8.84999999999999 14.15999999999999
496 1 12.389999999999983 10.61999999999999 15.929999999999989
497 1 14.159999999999982 8.84999999999999 15.929999999999989