ITEM: TIMESTEP
0
ITEM: NUMBER OF ATOMS
38564
ITEM: BOX BOUNDS pp pp pp
-1.0000000000000000e+01 1.3000000000000000e+02
0.0000000000000000e+00 2.0000000000000000e+01
0.0000000000000000e+00 4.0000000000000000e+00
ITEM: ATOMS id type x y z typelabel
1 1 0 0 0 Cu
2 1 0 0.5 0.5 Cu
3 1 0.5 0 0.5 Cu
4 1 0.5 0.5 0 Cu
5 1 0 0 1 Cu
6 1 0 0.5 1.5 Cu
7 1 0.5 0 1.5 Cu
8 1 0.5 0.5 1 Cu
9 1 0 0 2 Cu
10 1 0 0.5 2.5 Cu
11 1 0.5 0 2.5 Cu
12 1 0.5 0.5 2 Cu
13 1 0 0 3 Cu
14 1 0 0.5 3.5 Cu
15 1 0.5 0 3.5 Cu
16 1 0.5 0.5 3 Cu
17 1 1 0 0 Cu
18 1 1 0.5 0.5 Cu
19 1 1.5 0 0.5 Cu
20 1 1.5 0.5 0 Cu
21 1 1 0 1 Cu
22 1 1 0.5 1.5 Cu
23 1 1.5 0 1.5 Cu
24 1 1.5 0.5 1 Cu
25 1 1 0 2 Cu
26 1 1 0.5 2.5 Cu
27 1 1.5 0 2.5 Cu
28 1 1.5 0.5 2 Cu
29 1 1 0 3 Cu
30 1 1 0.5 3.5 Cu
31 1 1.5 0 3.5 Cu
32 1 1.5 0.5 3 Cu
33 1 2 0 0 Cu
34 1 2 0.5 0.5 Cu
35 1 2.5 0 0.5 Cu
36 1 2.5 0.5 0 Cu
37 1 2 0 1 Cu
38 1 2 0.5 1.5 Cu
39 1 2.5 0 1.5 Cu
40 1 2.5 0.5 1 Cu
41 1 2 0 2 Cu
42 1 2 0.5 2.5 Cu
43 1 2.5 0 2.5 Cu
44 1 2.5 0.5 2 Cu
45 1 2 0 3 Cu
46 1 2 0.5 3.5 Cu
47 1 2.5 0 3.5 Cu
48 1 2.5 0.5 3 Cu
49 1 3 0 0 Cu
50 1 3 0.5 0.5 Cu
51 1 3.5 0 0.5 Cu
52 1 3.5 0.5 0 Cu
53 1 3 0 1 Cu
54 1 3 0.5 1.5 Cu
55 1 3.5 0 1.5 Cu
56 1 3.5 0.5 1 Cu
57 1 3 0 2 Cu
58 1 3 0.5 2.5 Cu
59 1 3.5 0 2.5 Cu
60 1 3.5 0.5 2 Cu
61 1 3 0 3 Cu
62 1 3 0.5 3.5 Cu
63 1 3.5 0 3.5 Cu
64 1 3.5 0.5 3 Cu
65 1 4 0 0 Cu
66 1 4 0.5 0.5 Cu
67 1 4.5 0 0.5 Cu
68 1 4.5 0.5 0 Cu
69 1 4 0 1 Cu
70 1 4 0.5 1.5 Cu
71 1 4.5 0 1.5 Cu
72 1 4.5 0.5 1 Cu
73 1 4 0 2 Cu
74 1 4 0.5 2.5 Cu
75 1 4.5 0 2.5 Cu
76 1 4.5 0.5 2 Cu
77 1 4 0 3 Cu
78 1 4 0.5 3.5 Cu
79 1 4.5 0 3.5 Cu
80 1 4.5 0.5 3 Cu
81 1 5 0 0 Cu
82 1 5 0.5 0.5 Cu
83 1 5.5 0 0.5 Cu
84 1 5.5 0.5 0 Cu
85 1 5 0 1 Cu
86 1 5 0.5 1.5 Cu
87 1 5.5 0 1.5 Cu
88 1 5.5 0.5 1 Cu
89 1 5 0 2 Cu
90 1 5 0.5 2.5 Cu
91 1 5.5 0 2.5 Cu
92 1 5.5 0.5 2 Cu
93 1 5 0 3 Cu
94 1 5 0.5 3.5 Cu
95 1 5.5 0 3.5 Cu
96 1 5.5 0.5 3 Cu
97 1 6 0 0 Cu
98 1 6 0.5 0.5 Cu
99 1 6.5 0 0.5 Cu
100 1 6.5 0.5 0 Cu
101 1 6 0 1 Cu
102 1 6 0.5 1.5 Cu
103 1 6.5 0 1.5 Cu
104 1 6.5 0.5 1 Cu
105 1 6 0 2 Cu
106 1 6 0.5 2.5 Cu
107 1 6.5 0 2.5 Cu
108 1 6.5 0.5 2 Cu
109 1 6 0 3 Cu
110 1 6 0.5 3.5 Cu
111 1 6.5 0 3.5 Cu
112 1 6.5 0.5 3 Cu
113 1 7 0 0 Cu
114 1 7 0.5 0.5 Cu
115 1 7.5 0 0.5 Cu
116 1 7.5 0.5 0 Cu
117 1 7 0 1 Cu
118 1 7 0.5 1.5 Cu
119 1 7.5 0 1.5 Cu
120 1 7.5 0.5 1 Cu
121 1 7 0 2 Cu
122 1 7 0.5 2.5 Cu
123 1 7.5 0 2.5 Cu
124 1 7.5 0.5 2 Cu
125 1 7 0 3 Cu
126 1 7 0.5 3.5 Cu
127 1 7.5 0 3.5 Cu
128 1 7.5 0.5 3 Cu
129 1 8 0 0 Cu
130 1 8 0.5 0.5 Cu
131 1 8.5 0 0.5 Cu
132 1 8.5 0.5 0 Cu
133 1 8 0 1 Cu
134 1 8 0.5 1.5 Cu
135 1 8.5 0 1.5 Cu
136 1 8.5 0.5 1 Cu
137 1 8 0 2 Cu
138 1 8 0.5 2.5 Cu
139 1 8.5 0 2.5 Cu
140 1 8.5 0.5 2 Cu
141 1 8 0 3 Cu
142 1 8 0.5 3.5 Cu
143 1 8.5 0 3.5 Cu
144 1 8.5 0.5 3 Cu
145 1 9 0 0 Cu
146 1 9 0.5 0.5 Cu
147 1 9.5 0 0.5 Cu
148 1 9.5 0.5 0 Cu
149 1 9 0 1 Cu
150 1 9 0.5 1.5 Cu
151 1 9.5 0 1.5 Cu
152 1 9.5 0.5 1 Cu
153 1 9 0 2 Cu
154 1 9 0.5 2.5 Cu
155 1 9.5 0 2.5 Cu
156 1 9.5 0.5 2 Cu
157 1 9 0 3 Cu
158 1 9 0.5 3.5 Cu
159 1 9.5 0 3.5 Cu
160 1 9.5 0.5 3 Cu
161 1 10 0 0 Cu
162 1 10 0.5 0.5 Cu
163 1 10.5 0 0.5 Cu
164 1 10.5 0.5 0 Cu
165 1 10 0 1 Cu
166 1 10 0.5 1.5 Cu
167 1 10.5 0 1.5 Cu
168 1 10.5 0.5 1 Cu
169 1 10 0 2 Cu
170 1 10 0.5 2.5 Cu
171 1 10.5 0 2.5 Cu
172 1 10.5 0.5 2 Cu
173 1 10 0 3 Cu
174 1 10 0.5 3.5 Cu
175 1 10.5 0 3.5 Cu
176 1 10.5 0.5 3 Cu
177 1 11 0 0 Cu
178 1 11 0.5 0.5 Cu
179 1 11.5 0 0.5 Cu
180 1 11.5 0.5 0 Cu
181 1 11 0 1 Cu
182 1 11 0.5 1.5 Cu
183 1 11.5 0 1.5 Cu
184 1 11.5 0.5 1 Cu
185 1 11 0 2 Cu
186 1 11 0.5 2.5 Cu
187 1 11.5 0 2.5 Cu
188 1 11.5 0.5 2 Cu
189 1 11 0 3 Cu
190 1 11 0.5 3.5 Cu
191 1 11.5 0 3.5 Cu
192 1 11.5 0.5 3 Cu
193 1 12 0 0 Cu
194 1 12 0.5 0.5 Cu
195 1 12.5 0 0.5 Cu
196 1 12.5 0.5 0 Cu
197 1 12 0 1 Cu
198 1 12 0.5 1.5 Cu
199 1 12.5 0 1.5 Cu
200 1 12.5 0.5 1 Cu
201 1 12 0 2 Cu
202 1 12 0.5 2.5 Cu
203 1 12.5 0 2.5 Cu
204 1 12.5 0.5 2 Cu
205 1 12 0 3 Cu
206 1 12 0.5 3.5 Cu
207 1 12.5 0 3.5 Cu
208 1 12.5 0.5 3 Cu
209 1 13 0 0 Cu
210 1 13 0.5 0.5 Cu
211 1 13.5 0 0.5 Cu
212 1 13.5 0.5 0 Cu
213 1 13 0 1 Cu
214 1 13 0.5 1.5 Cu
215 1 13.5 0 1.5 Cu
216 1 13.5 0.5 1 Cu
217 1 13 0 2 Cu
218 1 13 0.5 2.5 Cu
219 1 13.5 0 2.5 Cu
220 1 13.5 0.5 2 Cu
221 1 13 0 3 Cu
222 1 13 0.5 3.5 Cu
223 1 13.5 0 3.5 Cu
224 1 13.5 0.5 3 Cu
225 1 14 0 0 Cu
226 1 14 0.5 0.5 Cu
227 1 14.5 0 0.5 Cu
228 1 14.5 0.5 0 Cu
229 1 14 0 1 Cu
230 1 14 0.5 1.5 Cu
231 1 14.5 0 1.5 Cu
232 1 14.5 0.5 1 Cu
233 1 14 0 2 Cu
234 1 14 0.5 2.5 Cu
235 1 14.5 0 2.5 Cu
236 1 14.5 0.5 2 Cu
237 1 14 0 3 Cu
238 1 14 0.5 3.5 Cu
239 1 14.5 0 3.5 Cu
240 1 14.5 0.5 3 Cu
241 1 15 0 0 Cu
242 1 15 0.5 0.5 Cu
243 1 15.5 0 0.5 Cu
244 1 15.5 0.5 0 Cu
245 1 15 0 1 Cu
246 1 15 0.5 1.5 Cu
247 1 15.5 0 1.5 Cu
248 1 15.5 0.5 1 Cu
249 1 15 0 2 Cu
250 1 15 0.5 2.5 Cu
251 1 15.5 0 2.5 Cu
252 1 15.5 0.5 2 Cu
253 1 15 0 3 Cu
254 1 15 0.5 3.5 Cu
255 1 15.5 0 3.5 Cu
256 1 15.5 0.5 3 Cu
257 1 16 0 0 Cu
258 1 16 0.5 0.5 Cu
259 1 16.5 0 0.5 Cu
260 1 16.5 0.5 0 Cu
261 1 16 0 1 Cu
262 1 16 0.5 1.5 Cu
263 1 16.5 0 1.5 Cu
264 1 16.5 0.5 1 Cu
265 1 16 0 2 Cu
266 1 16 0.5 2.5 Cu
267 1 16.5 0 2.5 Cu
268 1 16.5 0.5 2 Cu
269 1 16 0 3 Cu
270 1 16 0.5 3.5 Cu
271 1 16.5 0 3.5 Cu
272 1 16.5 0.5 3 Cu
273 1 17 0 0 Cu
274 1 17 0.5 0.5 Cu
275 1 17.5 0 0.5 Cu
276 1 17.5 0.5 0 Cu
277 1 17 0 1 Cu
278 1 17 0.5 1.5 Cu
279 1 17.5 0 1.5 Cu
280 1 17.5 0.5 1 Cu
281 1 17 0 2 Cu
282 1 17 0.5 2.5 Cu
283 1 17.5 0 2.5 Cu
284 1 17.5 0.5 2 Cu
285 1 17 0 3 Cu
286 1 17 0.5 3.5 Cu
287 1 17.5 0 3.5 Cu
288 1 17.5 0.5 3 Cu
289 1 18 0 0 Cu
290 1 18 0.5 0.5 Cu
291 1 18.5 0 0.5 Cu
292 1 18.5 0.5 0 Cu
293 1 18 0 1 Cu
294 1 18 0.5 1.5 Cu
295 1 18.5 0 1.5 Cu
296 1 18.5 0.5 1 Cu
297 1 18 0 2 Cu
298 1 18 0.5 2.5 Cu
299 1 18.5 0 2.5 Cu
300 1 18.5 0.5 2 Cu
301 1 18 0 3 Cu
302 1 18 0.5 3.5 Cu
303 1 18.5 0 3.5 Cu
304 1 18.5 0.5 3 Cu
305 1 19 0 0 Cu
306 1 19 0.5 0.5 Cu
307 1 19.5 0 0.5 Cu
308 1 19.5 0.5 0 Cu
309 1 19 0 1 Cu
310 1 19 0.5 1.5 Cu
311 1 19.5 0 1.5 Cu
312 1 19.5 0.5 1 Cu
313 1 19 0 2 Cu
314 1 19 0.5 2.5 Cu
315 1 19.5 0 2.5 Cu
316 1 19.5 0.5 2 Cu
317 1 19 0 3 Cu
318 1 19 0.5 3.5 Cu
319 1 19.5 0 3.5 Cu
320 1 19.5 0.5 3 Cu
321 1 20 0 0 Cu
322 1 20 0.5 0.5 Cu
323 1 20.5 0 0.5 Cu
324 1 20.5 0.5 0 Cu
325 1 20 0 1 Cu
326 1 20 0.5 1.5 Cu
327 1 20.5 0 1.5 Cu
328 1 20.5 0.5 1 Cu
329 1 20 0 2 Cu
330 1 20 0.5 2.5 Cu
331 1 20.5 0 2.5 Cu
332 1 20.5 0.5 2 Cu
333 1 20 0 3 Cu
334 1 20 0.5 3.5 Cu
335 1 20.5 0 3.5 Cu
336 1 20.5 0.5 3 Cu
337 1 21 0 0 Cu
338 1 21 0.5 0.5 Cu
339 1 21.5 0 0.5 Cu
340 1 21.5 0.5 0 Cu
341 1 21 0 1 Cu
342 1 21 0.5 1.5 Cu
343 1 21.5 0 1.5 Cu
344 1 21.5 0.5 1 Cu
345 1 21 0 2 Cu
346 1 21 0.5 2.5 Cu
347 1 21.5 0 2.5 Cu
348 1 21.5 0.5 2 Cu
349 1 21 0 3 Cu
350 1 21 0.5 3.5 Cu
351 1 21.5 0 3.5 Cu
352 1 21.5 0.5 3 Cu
353 1 22 0 0 Cu
354 1 22 0.5 0.5 Cu
355 1 22.5 0 0.5 Cu
356 1 22.5 0.5 0 Cu
357 1 22 0 1 Cu
358 1 22 0.5 1.5 Cu
359 1 22.5 0 1.5 Cu
360 1 22.5 0.5 1 Cu
361 1 22 0 2 Cu
362 1 22 0.5 2.5 Cu
363 1 22.5 0 2.5 Cu
364 1 22.5 0.5 2 Cu
365 1 22 0 3 Cu
366 1 22 0.5 3.5 Cu
367 1 22.5 0 3.5 Cu
368 1 22.5 0.5 3 Cu
369 1 23 0 0 Cu
370 1 23 0.5 0.5 Cu
371 1 23.5 0 0.5 Cu
372 1 23.5 0.5 0 Cu
373 1 23 0 1 Cu
374 1 23 0.5 1.5 Cu
375 1 23.5 0 1.5 Cu
376 1 23.5 0.5 1 Cu
377 1 23 0 2 Cu
378 1 23 0.5 2.5 Cu
379 1 23.5 0 2.5 Cu
380 1 23.5 0.5 2 Cu
381 1 23 0 3 Cu
382 1 23 0.5 3.5 Cu
383 1 23.5 0 3.5 Cu
384 1 23.5 0.5 3 Cu
385 1 24 0 0 Cu
386 1 24 0.5 0.5 Cu
387 1 24.5 0 0.5 Cu
388 1 24.5 0.5 0 Cu
389 1 24 0 1 Cu
390 1 24 0.5 1.5 Cu
391 1 24.5 0 1.5 Cu
392 1 24.5 0.5 1 Cu
393 1 24 0 2 Cu
394 1 24 0.5 2.5 Cu
395 1 24.5 0 2.5 Cu
396 1 24.5 0.5 2 Cu
397 1 24 0 3 Cu
398 1 24 0.5 3.5 Cu
399 1 24.5 0 3.5 Cu
400 1 24.5 0.5 3 Cu
401 1 25 0 0 Cu
402 1 25 0.5 0.5 Cu
403 1 25.5 0 0.5 Cu
404 1 25.5 0.5 0 Cu
405 1 25 0 1 Cu
406 1 25 0.5 1.5 Cu
407 1 25.5 0 1.5 Cu
408 1 25.5 0.5 1 Cu
409 1 25 0 2 Cu
410 1 25 0.5 2.5 Cu
411 1 25.5 0 2.5 Cu
412 1 25.5 0.5 2 Cu
413 1 25 0 3 Cu
414 1 25 0.5 3.5 Cu
415 1 25.5 0 3.5 Cu
416 1 25.5 0.5 3 Cu
417 1 26 0 0 Cu
418 1 26 0.5 0.5 Cu
419 1 26.5 0 0.5 Cu
420 1 26.5 0.5 0 Cu
421 1 26 0 1 Cu
422 1 26 0.5 1.5 Cu
423 1 26.5 0 1.5 Cu
424 1 26.5 0.5 1 Cu
425 1 26 0 2 Cu
426 1 26 0.5 2.5 Cu
427 1 26.5 0 2.5 Cu
428 1 26.5 0.5 2 Cu
429 1 26 0 3 Cu
430 1 26 0.5 3.5 Cu
431 1 26.5 0 3.5 Cu
432 1 26.5 0.5 3 Cu
433 1 27 0 0 Cu
434 1 27 0.5 0.5 Cu
435 1 27.5 0 0.5 Cu
436 1 27.5 0.5 0 Cu
437 1 27 0 1 Cu
438 1 27 0.5 1.5 Cu
439 1 27.5 0 1.5 Cu
440 1 27.5 0.5 1 Cu
441 1 27 0 2 Cu
442 1 27 0.5 2.5 Cu
443 1 27.5 0 2.5 Cu
444 1 27.5 0.5 2 Cu
445 1 27 0 3 Cu
446 1 27 0.5 3.5 Cu
447 1 27.5 0 3.5 Cu
448 1 27.5 0.5 3 Cu
449 1 28 0 0 Cu
450 1 28 0.5 0.5 Cu
451 1 28.5 0 0.5 Cu
452 1 28.5 0.5 0 Cu
453 1 28 0 1 Cu
454 1 28 0.5 1.5 Cu
455 1 28.5 0 1.5 Cu
456 1 28.5 0.5 1 Cu
457 1 28 0 2 Cu
458 1 28 0.5 2.5 Cu
459 1 28.5 0 2.5 Cu
460 1 28.5 0.5 2 Cu
461 1 28 0 3 Cu
462 1 28 0.5 3.5 Cu
463 1 28.5 0 3.5 Cu
464 1 28.5 0.5 3 Cu
465 1 29 0 0 Cu
466 1 29 0.5 0.5 Cu
467 1 29.5 0 0.5 Cu
468 1 29.5 0.5 0 Cu
469 1 29 0 1 Cu
470 1 29 0.5 1.5 Cu
471 1 29.5 0 1.5 Cu
472 1 29.5 0.5 1 Cu
473 1 29 0 2 Cu
474 1 29 0.5 2.5 Cu
475 1 29.5 0 2.5 Cu
476 1 29.5 0.5 2 Cu
477 1 29 0 3 Cu
478 1 29 0.5 3.5 Cu
479 1 29.5 0 3.5 Cu
480 1 29.5 0.5 3 Cu
481 1 30 0 0 Cu
482 1 30 0.5 0.5 Cu
483 1 30.5 0 0.5 Cu
484 1 30.5 0.5 0 Cu
485 1 30 0 1 Cu
486 1 30 0.5 1.5 Cu
487 1 30.5 0 1.5 Cu
488 1 30.5 0.5 1 Cu
489 1 30 0 2 Cu
490 1 30 0.5 2.5 Cu
491 1 30.5 0 2.5 Cu
492 1 30.5 0.5 2 Cu
493 1 30 0 3 Cu
494 1 30 0.5 3.5 Cu
495 1 30.5 0 3.5 Cu
496 1 30.5 0.5 3 Cu
497 1 31 0 0 Cu
498 1 31 0.5 0.5 Cu
499 1 31.5 0 0.5 Cu
500 1 31.5 0.5 0 Cu
501 1 31 0 1 Cu
502 1 31 0.5 1.5 Cu
503 1 31.5 0 1.5 Cu
504 1 31.5 0.5 1 Cu
505 1 31 0 2 Cu
506 1 31 0.5 2.5 Cu
507 1 31.5 0 2.5 Cu
508 1 31.5 0.5 2 Cu
509 1 31 0 3 Cu
510 1 31 0.5 3.5 Cu
511 1 31.5 0 3.5 Cu
512 1 31.5 0.5 3 Cu
513 1 32 0 0 Cu
514 1 32 0.5 0.5 Cu
515 1 32.5 0 0.5 Cu
516 1 32.5 0.5 0 Cu
517 1 32 0 1 Cu
518 1 32 0.5 1.5 Cu
519 1 32.5 0 1.5 Cu
520 1 32.5 0.5 1 Cu
521 1 32 0 2 Cu
522 1 32 0.5 2.5 Cu
523 1 32.5 0 2.5 Cu
524 1 32.5 0.5 2 Cu
525 1 32 0 3 Cu
526 1 32 0.5 3.5 Cu
527 1 32.5 0 3.5 Cu
528 1 32.5 0.5 3 Cu
529 1 33 0 0 Cu
530 1 33 0.5 0.5 Cu
531 1 33.5 0 0.5 Cu
532 1 33.5 0.5 0 Cu
533 1 33 0 1 Cu
534 1 33 0.5 1.5 Cu
535 1 33.5 0 1.5 Cu
536 1 33.5 0.5 1 Cu
537 1 33 0 2 Cu
538 1 33 0.5 2.5 Cu
539 1 33.5 0 2.5 Cu
540 1 33.5 0.5 2 Cu
541 1 33 0 3 Cu
542 1 33 0.5 3.5 Cu
543 1 33.5 0 3.5 Cu
544 1 33.5 0.5 3 Cu
545 1 34 0 0 Cu
546 1 34 0.5 0.5 Cu
547 1 34.5 0 0.5 Cu
548 1 34.5 0.5 0 Cu
549 1 34 0 1 Cu
550 1 34 0.5 1.5 Cu
551 1 34.5 0 1.5 Cu
552 1 34.5 0.5 1 Cu
553 1 34 0 2 Cu
554 1 34 0.5 2.5 Cu
555 1 34.5 0 2.5 Cu
556 1 34.5 0.5 2 Cu
557 1 34 0 3 Cu
558 1 34 0.5 3.5 Cu
559 1 34.5 0 3.5 Cu
560 1 34.5 0.5 3 Cu
561 1 35 0 0 Cu
562 1 35 0.5 0.5 Cu
563 1 35.5 0 0.5 Cu
564 1 35.5 0.5 0 Cu
565 1 35 0 1 Cu
566 1 35 0.5 1.5 Cu
567 1 35.5 0 1.5 Cu
568 1 35.5 0.5 1 Cu
569 1 35 0 2 Cu
570 1 35 0.5 2.5 Cu
571 1 35.5 0 2.5 Cu
572 1 35.5 0.5 2 Cu
573 1 35 0 3 Cu
574 1 35 0.5 3.5 Cu
575 1 35.5 0 3.5 Cu
576 1 35.5 0.5 3 Cu
577 1 36 0 0 Cu
578 1 36 0.5 0.5 Cu
579 1 36.5 0 0.5 Cu
580 1 36.5 0.5 0 Cu
581 1 36 0 1 Cu
582 1 36 0.5 1.5 Cu
583 1 36.5 0 1.5 Cu
584 1 36.5 0.5 1 Cu
585 1 36 0 2 Cu
586 1 36 0.5 2.5 Cu
587 1 36.5 0 2.5 Cu
588 1 36.5 0.5 2 Cu
589 1 36 0 3 Cu
590 1 36 0.5 3.5 Cu
591 1 36.5 0 3.5 Cu
592 1 36.5 0.5 3 Cu
593 1 37 0 0 Cu
594 1 37 0.5 0.5 Cu
595 1 37.5 0 0.5 Cu
596 1 37.5 0.5 0 Cu
597 1 37 0 1 Cu
598 1 37 0.5 1.5 Cu
599 1 37.5 0 1.5 Cu
600 1 37.5 0.5 1 Cu
601 1 37 0 2 Cu
602 1 37 0.5 2.5 Cu
603 1 37.5 0 2.5 Cu
604 1 37.5 0.5 2 Cu
605 1 37 0 3 Cu
606 1 37 0.5 3.5 Cu
607 1 37.5 0 3.5 Cu
608 1 37.5 0.5 3 Cu
609 1 38 0 0 Cu
610 1 38 0.5 0.5 Cu
611 1 38.5 0 0.5 Cu
612 1 38.5 0.5 0 Cu
613 1 38 0 1 Cu
614 1 38 0.5 1.5 Cu
615 1 38.5 0 1.5 Cu
616 1 38.5 0.5 1 Cu
617 1 38 0 2 Cu
618 1 38 0.5 2.5 Cu
619 1 38.5 0 2.5 Cu
620 1 38.5 0.5 2 Cu
621 1 38 0 3 Cu
622 1 38 0.5 3.5 Cu
623 1 38.5 0 3.5 Cu
624 1 38.5 0.5 3 Cu
625 1 39 0 0 Cu
626 1 39 0.5 0.5 Cu
627 1 39.5 0 0.5 Cu
628 1 39.5 0.5 0 Cu
629 1 39 0 1 Cu
630 1 39 0.5 1.5 Cu
631 1 39.5 0 1.5 Cu
632 1 39.5 0.5 1 Cu
633 1 39 0 2 Cu
634 1 39 0.5 2.5 Cu
635 1 39.5 0 2.5 Cu
636 1 39.5 0.5 2 Cu
637 1 39 0 3 Cu
638 1 39 0.5 3.5 Cu
639 1 39.5 0 3.5 Cu
640 1 39.5 0.5 3 Cu
641 1 40 0 0 Cu
642 1 40 0.5 0.5 Cu
643 1 40.5 0 0.5 Cu
644 1 40.5 0.5 0 Cu
645 1 40 0 1 Cu
646 1 40 0.5 1.5 Cu
647 1 40.5 0 1.5 Cu
648 1 40.5 0.5 1 Cu
649 1 40 0 2 Cu
650 1 40 0.5 2.5 Cu
651 1 40.5 0 2.5 Cu
652 1 40.5 0.5 2 Cu
653 1 40 0 3 Cu
654 1 40 0.5 3.5 Cu
655 1 40.5 0 3.5 Cu
656 1 40.5 0.5 3 Cu
657 1 41 0 0 Cu
658 1 41 0.5 0.5 Cu
659 1 41.5 0 0.5 Cu
660 1 41.5 0.5 0 Cu
661 1 41 0 1 Cu
662 1 41 0.5 1.5 Cu
663 1 41.5 0 1.5 Cu
664 1 41.5 0.5 1 Cu
665 1 41 0 2 Cu
666 1 41 0.5 2.5 Cu
667 1 41.5 0 2.5 Cu
668 1 41.5 0.5 2 Cu
669 1 41 0 3 Cu
670 1 41 0.5 3.5 Cu
671 1 41.5 0 3.5 Cu
672 1 41.5 0.5 3 Cu
673 1 42 0 0 Cu
674 1 42 0.5 0.5 Cu
675 1 42.5 0 0.5 Cu
676 1 42.5 0.5 0 Cu
677 1 42 0 1 Cu
678 1 42 0.5 1.5 Cu
679 1 42.5 0 1.5 Cu
680 1 42.5 0.5 1 Cu
681 1 42 0 2 Cu
682 1 42 0.5 2.5 Cu
683 1 42.5 0 2.5 Cu
684 1 42.5 0.5 2 Cu
685 1 42 0 3 Cu
686 1 42 0.5 3.5 Cu
687 1 42.5 0 3.5 Cu
688 1 42.5 0.5 3 Cu
689 1 43 0 0 Cu
690 1 43 0.5 0.5 Cu
691 1 43.5 0 0.5 Cu
692 1 43.5 0.5 0 Cu
693 1 43 0 1 Cu
694 1 43 0.5 1.5 Cu
695 1 43.5 0 1.5 Cu
696 1 43.5 0.5 1 Cu
697 1 43 0 2 Cu
698 1 43 0.5 2.5 Cu
699 1 43.5 0 2.5 Cu
700 1 43.5 0.5 2 Cu
701 1 43 0 3 Cu
702 1 43 0.5 3.5 Cu
703 1 43.5 0 3.5 Cu
704 1 43.5 0.5 3 Cu
705 1 44 0 0 Cu
706 1 44 0.5 0.5 Cu
707 1 44.5 0 0.5 Cu
708 1 44.5 0.5 0 Cu
709 1 44 0 1 Cu
710 1 44 0.5 1.5 Cu
711 1 44.5 0 1.5 Cu
712 1 44.5 0.5 1 Cu
713 1 44 0 2 Cu
714 1 44 0.5 2.5 Cu
715 1 44.5 0 2.5 Cu
716 1 44.5 0.5 2 Cu
717 1 44 0 3 Cu
718 1 44 0.5 3.5 Cu
719 1 44.5 0 3.5 Cu
720 1 44.5 0.5 3 Cu
721 1 45 0 0 Cu
722 1 45 0.5 0.5 Cu
723 1 45.5 0 0.5 Cu
724 1 45.5 0.5 0 Cu
725 1 45 0 1 Cu
726 1 45 0.5 1.5 Cu
727 1 45.5 0 1.5 Cu
728 1 45.5 0.5 1 Cu
729 1 45 0 2 Cu
730 1 45 0.5 2.5 Cu
731 1 45.5 0 2.5 Cu
732 1 45.5 0.5 2 Cu
733 1 45 0 3 Cu
734 1 45 0.5 3.5 Cu
735 1 45.5 0 3.5 Cu
736 1 45.5 0.5 3 Cu
737 1 46 0 0 Cu
738 1 46 0.5 0.5 Cu
739 1 46.5 0 0.5 Cu
740 1 46.5 0.5 0 Cu
741 1 46 0 1 Cu
742 1 46 0.5 1.5 Cu
743 1 46.5 0 1.5 Cu
744 1 46.5 0.5 1 Cu
745 1 46 0 2 Cu
746 1 46 0.5 2.5 Cu
747 1 46.5 0 2.5 Cu
748 1 46.5 0.5 2 Cu
749 1 46 0 3 Cu
750 1 46 0.5 3.5 Cu
751 1 46.5 0 3.5 Cu
752 1 46.5 0.5 3 Cu
753 1 47 0 0 Cu
754 1 47 0.5 0.5 Cu
755 1 47.5 0 0.5 Cu
756 1 47.5 0.5 0 Cu
757 1 47 0 1 Cu
758 1 47 0.5 1.5 Cu
759 1 47.5 0 1.5 Cu
760 1 47.5 0.5 1 Cu
761 1 47 0 2 Cu
762 1 47 0.5 2.5 Cu
763 1 47.5 0 2.5 Cu
764 1 47.5 0.5 2 Cu
765 1 47 0 3 Cu
766 1 47 0.5 3.5 Cu
767 1 47.5 0 3.5 Cu
768 1 47.5 0.5 3 Cu
769 1 48 0 0 Cu
770 1 48 0.5 0.5 Cu
771 1 48.5 0 0.5 Cu
772 1 48.5 0.5 0 Cu
773 1 48 0 1 Cu
774 1 48 0.5 1.5 Cu
775 1 48.5 0 1.5 Cu
776 1 48.5 0.5 1 Cu
777 1 48 0 2 Cu
778 1 48 0.5 2.5 Cu
779 1 48.5 0 2.5 Cu
780 1 48.5 0.5 2 Cu
781 1 48 0 3 Cu
782 1 48 0.5 3.5 Cu
783 1 48.5 0 3.5 Cu
784 1 48.5 0.5 3 Cu
785 1 49 0 0 Cu
786 1 49 0.5 0.5 Cu
787 1 49.5 0 0.5 Cu
788 1 49.5 0.5 0 Cu
789 1 49 0 1 Cu
790 1 49 0.5 1.5 Cu
791 1 49.5 0 1.5 Cu
792 1 49.5 0.5 1 Cu
793 1 49 0 2 Cu
794 1 49 0.5 2.5 Cu
795 1 49.5 0 2.5 Cu
796 1 49.5 0.5 2 Cu
797 1 49 0 3 Cu
798 1 49 0.5 3.5 Cu
799 1 49.5 0 3.5 Cu
800 1 49.5 0.5 3 Cu
801 1 50 0 0 Cu
802 1 50 0.5 0.5 Cu
803 1 50.5 0 0.5 Cu
804 1 50.5 0.5 0 Cu
805 1 50 0 1 Cu
806 1 50 0.5 1.5 Cu
807 1 50.5 0 1.5 Cu
808 1 50.5 0.5 1 Cu
809 1 50 0 2 Cu
810 1 50 0.5 2.5 Cu
811 1 50.5 0 2.5 Cu
812 1 50.5 0.5 2 Cu
813 1 50 0 3 Cu
814 1 50 0.5 3.5 Cu
815 1 50.5 0 3.5 Cu
816 1 50.5 0.5 3 Cu
817 1 51 0 0 Cu
818 1 51 0.5 0.5 Cu
819 1 51.5 0 0.5 Cu
820 1 51.5 0.5 0 Cu
821 1 51 0 1 Cu
822 1 51 0.5 1.5 Cu
823 1 51.5 0 1.5 Cu
824 1 51.5 0.5 1 Cu
825 1 51 0 2 Cu
826 1 51 0.5 2.5 Cu
827 1 51.5 0 2.5 Cu
828 1 51.5 0.5 2 Cu
829 1 51 0 3 Cu
830 1 51 0.5 3.5 Cu
831 1 51.5 0 3.5 Cu
832 1 51.5 0.5 3 Cu
833 1 52 0 0 Cu
834 1 52 0.5 0.5 Cu
835 1 52.5 0 0.5 Cu
836 1 52.5 0.5 0 Cu
837 1 52 0 1 Cu
838 1 52 0.5 1.5 Cu
839 1 52.5 0 1.5 Cu
840 1 52.5 0.5 1 Cu
841 1 52 0 2 Cu
842 1 52 0.5 2.5 Cu
843 1 52.5 0 2.5 Cu
844 1 52.5 0.5 2 Cu
845 1 52 0 3 Cu
846 1 52 0.5 3.5 Cu
847 1 52.5 0 3.5 Cu
848 1 52.5 0.5 3 Cu
849 1 53 0 0 Cu
850 1 53 0.5 0.5 Cu
851 1 53.5 0 0.5 Cu
852 1 53.5 0.5 0 Cu
853 1 53 0 1 Cu
854 1 53 0.5 1.5 Cu
855 1 53.5 0 1.5 Cu
856 1 53.5 0.5 1 Cu
857 1 53 0 2 Cu
858 1 53 0.5 2.5 Cu
859 1 53.5 0 2.5 Cu
860 1 53.5 0.5 2 Cu
861 1 53 0 3 Cu
862 1 53 0.5 3.5 Cu
863 1 53.5 0 3.5 Cu
864 1 53.5 0.5 3 Cu
865 1 54 0 0 Cu
866 1 54 0.5 0.5 Cu
867 1 54.5 0 0.5 Cu
868 1 54.5 0.5 0 Cu
869 1 54 0 1 Cu
870 1 54 0.5 1.5 Cu
871 1 54.5 0 1.5 Cu
872 1 54.5 0.5 1 Cu
873 1 54 0 2 Cu
874 1 54 0.5 2.5 Cu
875 1 54.5 0 2.5 Cu
876 1 54.5 0.5 2 Cu
877 1 54 0 3 Cu
878 1 54 0.5 3.5 Cu
879 1 54.5 0 3.5 Cu
880 1 54.5 0.5 3 Cu
881 1 55 0 0 Cu
882 1 55 0.5 0.5 Cu
883 1 55.5 0 0.5 Cu
884 1 55.5 0.5 0 Cu
885 1 55 0 1 Cu
886 1 55 0.5 1.5 Cu
887 1 55.5 0 1.5 Cu
888 1 55.5 0.5 1 Cu
889 1 55 0 2 Cu
890 1 55 0.5 2.5 Cu
891 1 55.5 0 2.5 Cu
892 1 55.5 0.5 2 Cu
893 1 55 0 3 Cu
894 1 55 0.5 3.5 Cu
895 1 55.5 0 3.5 Cu
896 1 55.5 0.5 3 Cu
897 1 56 0 0 Cu
898 1 56 0.5 0.5 Cu
899 1 56.5 0 0.5 Cu
900 1 56.5 0.5 0 Cu
901 1 56 0 1 Cu
902 1 56 0.5 1.5 Cu
903 1 56.5 0 1.5 Cu
904 1 56.5 0.5 1 Cu
905 1 56 0 2 Cu
906 1 56 0.5 2.5 Cu
907 1 56.5 0 2.5 Cu
908 1 56.5 0.5 2 Cu
909 1 56 0 3 Cu
910 1 56 0.5 3.5 Cu
911 1 56.5 0 3.5 Cu
912 1 56.5 0.5 3 Cu
913 1 57 0 0 Cu
914 1 57 0.5 0.5 Cu
915 1 57.5 0 0.5 Cu
916 1 57.5 0.5 0 Cu
917 1 57 0 1 Cu
918 1 57 0.5 1.5 Cu
919 1 57.5 0 1.5 Cu
920 1 57.5 0.5 1 Cu
921 1 57 0 2 Cu
922 1 57 0.5 2.5 Cu
923 1 57.5 0 2.5 Cu
924 1 57.5 0.5 2 Cu
925 1 57 0 3 Cu
926 1 57 0.5 3.5 Cu
927 1 57.5 0 3.5 Cu
928 1 57.5 0.5 3 Cu
929 1 58 0 0 Cu
930 1 58 0.5 0.5 Cu
931 1 58.5 0 0.5 Cu
932 1 58.5 0.5 0 Cu
933 1 58 0 1 Cu
934 1 58 0.5 1.5 Cu
935 1 58.5 0 1.5 Cu
936 1 58.5 0.5 1 Cu
937 1 58 0 2 Cu
938 1 58 0.5 2.5 Cu
939 1 58.5 0 2.5 Cu
940 1 58.5 0.5 2 Cu
941 1 58 0 3 Cu
942 1 58 0.5 3.5 Cu
943 1 58.5 0 3.5 Cu
944 1 58.5 0.5 3 Cu
945 1 59 0 0 Cu
946 1 59 0.5 0.5 Cu
947 1 59.5 0 0.5 Cu
948 1 59.5 0.5 0 Cu
949 1 59 0 1 Cu
950 1 59 0.5 1.5 Cu
951 1 59.5 0 1.5 Cu
952 1 59.5 0.5 1 Cu
953 1 59 0 2 Cu
954 1 59 0.5 2.5 Cu
955 1 59.5 0 2.5 Cu
956 1 59.5 0.5 2 Cu
957 1 59 0 3 Cu
958 1 59 0.5 3.5 Cu
959 1 59.5 0 3.5 Cu
960 1 59.5 0.5 3 Cu
961 1 60 0 0 Cu
962 1 60 0.5 0.5 Cu
963 1 60 0 1 Cu
964 1 60 0.5 1.5 Cu
965 1 60 0 2 Cu
966 1 60 0.5 2.5 Cu
967 1 60 0 3 Cu
968 1 60 0.5 3.5 Cu
969 1 0 1 0 Cu
970 1 0 1.5 0.5 Cu
971 1 0.5 1 0.5 Cu
972 1 0.5 1.5 0 Cu
973 1 0 1 1 Cu
974 1 0 1.5 1.5 Cu
975 1 0.5 1 1.5 Cu
976 1 0.5 1.5 1 Cu
977 1 0 1 2 Cu
978 1 0 1.5 2.5 Cu
979 1 0.5 1 2.5 Cu
980 1 0.5 1.5 2 Cu
981 1 0 1 3 Cu
982 1 0 1.5 3.5 Cu
983 1 0.5 1 3.5 Cu
984 1 0.5 1.5 3 Cu
985 1 1 1 0 Cu
986 1 1 1.5 0.5 Cu
987 1 1.5 1 0.5 Cu
988 1 1.5 1.5 0 Cu
989 1 1 1 1 Cu
990 1 1 1.5 1.5 Cu
991 1 1.5 1 1.5 Cu
992 1 1.5 1.5 1 Cu
993 1 1 1 2 Cu
994 1 1 1.5 2.5 Cu
995 1 1.5 1 2.5 Cu
996 1 1.5 1.5 2 Cu
997 1 1 1 3 Cu
998 1 1 1.5 3.5 Cu
999 1 1.5 1 3.5 Cu
1000 1 1.5 1.5 3 Cu
1001 1 2 1 0 Cu
1002 1 2 1.5 0.5 Cu
1003 1 2.5 1 0.5 Cu
1004 1 2.5 1.5 0 Cu
1005 1 2 1 1 Cu
1006 1 2 1.5 1.5 Cu
1007 1 2.5 1 1.5 Cu
1008 1 2.5 1.5 1 Cu
1009 1 2 1 2 Cu
1010 1 2 1.5 2.5 Cu
1011 1 2.5 1 2.5 Cu
1012 1 2.5 1.5 2 Cu
1013 1 2 1 3 Cu
1014 1 2 1.5 3.5 Cu
1015 1 2.5 1 3.5 Cu
1016 1 2.5 1.5 3 Cu
1017 1 3 1 0 Cu
1018 1 3 1.5 0.5 Cu
1019 1 3.5 1 0.5 Cu
1020 1 3.5 1.5 0 Cu
1021 1 3 1 1 Cu
1022 1 3 1.5 1.5 Cu
1023 1 3.5 1 1.5 Cu
1024 1 3.5 1.5 1 Cu
1025 1 3 1 2 Cu
1026 1 3 1.5 2.5 Cu
1027 1 3.5 1 2.5 Cu
1028 1 3.5 1.5 2 Cu
1029 1 3 1 3 Cu
1030 1 3 1.5 3.5 Cu
1031 1 3.5 1 3.5 Cu
1032 1 3.5 1.5 3 Cu
1033 1 4 1 0 Cu
1034 1 4 1.5 0.5 Cu
1035 1 4.5 1 0.5 Cu
1036 1 4.5 1.5 0 Cu
1037 1 4 1 1 Cu
1038 1 4 1.5 1.5 Cu
1039 1 4.5 1 1.5 Cu
1040 1 4.5 1.5 1 Cu
1041 1 4 1 2 Cu
1042 1 4 1.5 2.5 Cu
1043 1 4.5 1 2.5 Cu
1044 1 4.5 1.5 2 Cu
1045 1 4 1 3 Cu
1046 1 4 1.5 3.5 Cu
1047 1 4.5 1 3.5 Cu
1048 1 4.5 1.5 3 Cu
1049 1 5 1 0 Cu
1050 1 5 1.5 0.5 Cu
1051 1 5.5 1 0.5 Cu
1052 1 5.5 1.5 0 Cu
1053 1 5 1 1 Cu
1054 1 5 1.5 1.5 Cu
1055 1 5.5 1 1.5 Cu
1056 1 5.5 1.5 1 Cu
1057 1 5 1 2 Cu
1058 1 5 1.5 2.5 Cu
1059 1 5.5 1 2.5 Cu
1060 1 5.5 1.5 2 Cu
1061 1 5 1 3 Cu
1062 1 5 1.5 3.5 Cu
1063 1 5.5 1 3.5 Cu
1064 1 5.5 1.5 3 Cu
1065 1 6 1 0 Cu
1066 1 6 1.5 0.5 Cu
1067 1 6.5 1 0.5 Cu
1068 1 6.5 1.5 0 Cu
1069 1 6 1 1 Cu
1070 1 6 1.5 1.5 Cu
1071 1 6.5 1 1.5 Cu
1072 1 6.5 1.5 1 Cu
1073 1 6 1 2 Cu
1074 1 6 1.5 2.5 Cu
1075 1 6.5 1 2.5 Cu
1076 1 6.5 1.5 2 Cu
1077 1 6 1 3 Cu
1078 1 6 1.5 3.5 Cu
1079 1 6.5 1 3.5 Cu
1080 1 6.5 1.5 3 Cu
1081 1 7 1 0 Cu
1082 1 7 1.5 0.5 Cu
1083 1 7.5 1 0.5 Cu
1084 1 7.5 1.5 0 Cu
1085 1 7 1 1 Cu
1086 1 7 1.5 1.5 Cu
1087 1 7.5 1 1.5 Cu
1088 1 7.5 1.5 1 Cu
1089 1 7 1 2 Cu
1090 1 7 1.5 2.5 Cu
1091 1 7.5 1 2.5 Cu
1092 1 7.5 1.5 2 Cu
1093 1 7 1 3 Cu
1094 1 7 1.5 3.5 Cu
1095 1 7.5 1 3.5 Cu
1096 1 7.5 1.5 3 Cu
1097 1 8 1 0 Cu
1098 1 8 1.5 0.5 Cu
1099 1 8.5 1 0.5 Cu
1100 1 8.5 1.5 0 Cu
1101 1 8 1 1 Cu
1102 1 8 1.5 1.5 Cu
1103 1 8.5 1 1.5 Cu
1104 1 8.5 1.5 1 Cu
1105 1 8 1 2 Cu
1106 1 8 1.5 2.5 Cu
1107 1 8.5 1 2.5 Cu
1108 1 8.5 1.5 2 Cu
1109 1 8 1 3 Cu
1110 1 8 1.5 3.5 Cu
1111 1 8.5 1 3.5 Cu
1112 1 8.5 1.5 3 Cu
1113 1 9 1 0 Cu
1114 1 9 1.5 0.5 Cu
1115 1 9.5 1 0.5 Cu
1116 1 9.5 1.5 0 Cu
1117 1 9 1 1 Cu
1118 1 9 1.5 1.5 Cu
1119 1 9.5 1 1.5 Cu
1120 1 9.5 1.5 1 Cu
1121 1 9 1 2 Cu
1122 1 9 1.5 2.5 Cu
1123 1 9.5 1 2.5 Cu
1124 1 9.5 1.5 2 Cu
1125 1 9 1 3 Cu
1126 1 9 1.5 3.5 Cu
1127 1 9.5 1 3.5 Cu
1128 1 9.5 1.5 3 Cu
1129 1 10 1 0 Cu
1130 1 10 1.5 0.5 Cu
1131 1 10.5 1 0.5 Cu
1132 1 10.5 1.5 0 Cu
1133 1 10 1 1 Cu
1134 1 10 1.5 1.5 Cu
1135 1 10.5 1 1.5 Cu
1136 1 10.5 1.5 1 Cu
1137 1 10 1 2 Cu
1138 1 10 1.5 2.5 Cu
1139 1 10.5 1 2.5 Cu
1140 1 10.5 1.5 2 Cu
1141 1 10 1 3 Cu
1142 1 10 1.5 3.5 Cu
1143 1 10.5 1 3.5 Cu
1144 1 10.5 1.5 3 Cu
1145 1 11 1 0 Cu
1146 1 11 1.5 0.5 Cu
1147 1 11.5 1 0.5 Cu
1148 1 11.5 1.5 0 Cu
1149 1 11 1 1 Cu
1150 1 11 1.5 1.5 Cu
1151 1 11.5 1 1.5 Cu
1152 1 11.5 1.5 1 Cu
1153 1 11 1 2 Cu
1154 1 11 1.5 2.5 Cu
1155 1 11.5 1 2.5 Cu
1156 1 11.5 1.5 2 Cu
1157 1 11 1 3 Cu
1158 1 11 1.5 3.5 Cu
1159 1 11.5 1 3.5 Cu
1160 1 11.5 1.5 3 Cu
1161 1 12 1 0 Cu
1162 1 12 1.5 0.5 Cu
1163 1 12.5 1 0.5 Cu
1164 1 12.5 1.5 0 Cu
1165 1 12 1 1 Cu
1166 1 12 1.5 1.5 Cu
1167 1 12.5 1 1.5 Cu
1168 1 12.5 1.5 1 Cu
1169 1 12 1 2 Cu
1170 1 12 1.5 2.5 Cu
1171 1 12.5 1 2.5 Cu
1172 1 12.5 1.5 2 Cu
1173 1 12 1 3 Cu
1174 1 12 1.5 3.5 Cu
1175 1 12.5 1 3.5 Cu
1176 1 12.5 1.5 3 Cu
1177 1 13 1 0 Cu
1178 1 13 1.5 0.5 Cu
1179 1 13.5 1 0.5 Cu
1180 1 13.5 1.5 0 Cu
1181 1 13 1 1 Cu
1182 1 13 1.5 1.5 Cu
1183 1 13.5 1 1.5 Cu
1184 1 13.5 1.5 1 Cu
1185 1 13 1 2 Cu
1186 1 13 1.5 2.5 Cu
1187 1 13.5 1 2.5 Cu
1188 1 13.5 1.5 2 Cu
1189 1 13 1 3 Cu
1190 1 13 1.5 3.5 Cu
1191 1 13.5 1 3.5 Cu
1192 1 13.5 1.5 3 Cu
1193 1 14 1 0 Cu
1194 1 14 1.5 0.5 Cu
1195 1 14.5 1 0.5 Cu
1196 1 14.5 1.5 0 Cu
1197 1 14 1 1 Cu
1198 1 14 1.5 1.5 Cu
1199 1 14.5 1 1.5 Cu
1200 1 14.5 1.5 1 Cu
1201 1 14 1 2 Cu
1202 1 14 1.5 2.5 Cu
1203 1 14.5 1 2.5 Cu
1204 1 14.5 1.5 2 Cu
1205 1 14 1 3 Cu
1206 1 14 1.5 3.5 Cu
1207 1 14.5 1 3.5 Cu
1208 1 14.5 1.5 3 Cu
1209 1 15 1 0 Cu
1210 1 15 1.5 0.5 Cu
1211 1 15.5 1 0.5 Cu
1212 1 15.5 1.5 0 Cu
1213 1 15 1 1 Cu
1214 1 15 1.5 1.5 Cu
1215 1 15.5 1 1.5 Cu
1216 1 15.5 1.5 1 Cu
1217 1 15 1 2 Cu
1218 1 15 1.5 2.5 Cu
1219 1 15.5 1 2.5 Cu
1220 1 15.5 1.5 2 Cu
1221 1 15 1 3 Cu
1222 1 15 1.5 3.5 Cu
1223 1 15.5 1 3.5 Cu
1224 1 15.5 1.5 3 Cu
1225 1 16 1 0 Cu
1226 1 16 1.5 0.5 Cu
1227 1 16.5 1 0.5 Cu
1228 1 16.5 1.5 0 Cu
1229 1 16 1 1 Cu
1230 1 16 1.5 1.5 Cu
1231 1 16.5 1 1.5 Cu
1232 1 16.5 1.5 1 Cu
1233 1 16 1 2 Cu
1234 1 16 1.5 2.5 Cu
1235 1 16.5 1 2.5 Cu
1236 1 16.5 1.5 2 Cu
1237 1 16 1 3 Cu
1238 1 16 1.5 3.5 Cu
1239 1 16.5 1 3.5 Cu
1240 1 16.5 1.5 3 Cu
1241 1 17 1 0 Cu
1242 1 17 1.5 0.5 Cu
1243 1 17.5 1 0.5 Cu
1244 1 17.5 1.5 0 Cu
1245 1 17 1 1 Cu
1246 1 17 1.5 1.5 Cu
1247 1 17.5 1 1.5 Cu
1248 1 17.5 1.5 1 Cu
1249 1 17 1 2 Cu
1250 1 17 1.5 2.5 Cu
1251 1 17.5 1 2.5 Cu
1252 1 17.5 1.5 2 Cu
1253 1 17 1 3 Cu
1254 1 17 1.5 3.5 Cu
1255 1 17.5 1 3.5 Cu
1256 1 17.5 1.5 3 Cu
1257 1 18 1 0 Cu
1258 1 18 1.5 0.5 Cu
1259 1 18.5 1 0.5 Cu
1260 1 18.5 1.5 0 Cu
1261 1 18 1 1 Cu
1262 1 18 1.5 1.5 Cu
1263 1 18.5 1 1.5 Cu
1264 1 18.5 1.5 1 Cu
1265 1 18 1 2 Cu
1266 1 18 1.5 2.5 Cu
1267 1 18.5 1 2.5 Cu
1268 1 18.5 1.5 2 Cu
1269 1 18 1 3 Cu
1270 1 18 1.5 3.5 Cu
1271 1 18.5 1 3.5 Cu
1272 1 18.5 1.5 3 Cu
1273 1 19 1 0 Cu
1274 1 19 1.5 0.5 Cu
1275 1 19.5 1 0.5 Cu
1276 1 19.5 1.5 0 Cu
1277 1 19 1 1 Cu
1278 1 19 1.5 1.5 Cu
1279 1 19.5 1 1.5 Cu
1280 1 19.5 1.5 1 Cu
1281 1 19 1 2 Cu
1282 1 19 1.5 2.5 Cu
1283 1 19.5 1 2.5 Cu
1284 1 19.5 1.5 2 Cu
1285 1 19 1 3 Cu
1286 1 19 1.5 3.5 Cu
1287 1 19.5 1 3.5 Cu
1288 1 19.5 1.5 3 Cu
1289 1 20 1 0 Cu
1290 1 20 1.5 0.5 Cu
1291 1 20.5 1 0.5 Cu
1292 1 20.5 1.5 0 Cu
1293 1 20 1 1 Cu
1294 1 20 1.5 1.5 Cu
1295 1 20.5 1 1.5 Cu
1296 1 20.5 1.5 1 Cu
1297 1 20 1 2 Cu
1298 1 20 1.5 2.5 Cu
1299 1 20.5 1 2.5 Cu
1300 1 20.5 1.5 2 Cu
1301 1 20 1 3 Cu
1302 1 20 1.5 3.5 Cu
1303 1 20.5 1 3.5 Cu
1304 1 20.5 1.5 3 Cu
1305 1 21 1 0 Cu
1306 1 21 1.5 0.5 Cu
1307 1 21.5 1 0.5 Cu
1308 1 21.5 1.5 0 Cu
1309 1 21 1 1 Cu
1310 1 21 1.5 1.5 Cu
1311 1 21.5 1 1.5 Cu
1312 1 21.5 1.5 1 Cu
1313 1 21 1 2 Cu
1314 1 21 1.5 2.5 Cu
1315 1 21.5 1 2.5 Cu
1316 1 21.5 1.5 2 Cu
1317 1 21 1 3 Cu
1318 1 21 1.5 3.5 Cu
1319 1 21.5 1 3.5 Cu
1320 1 21.5 1.5 3 Cu
1321 1 22 1 0 Cu
1322 1 22 1.5 0.5 Cu
1323 1 22.5 1 0.5 Cu
1324 1 22.5 1.5 0 Cu
1325 1 22 1 1 Cu
1326 1 22 1.5 1.5 Cu
1327 1 22.5 1 1.5 Cu
1328 1 22.5 1.5 1 Cu
1329 1 22 1 2 Cu
1330 1 22 1.5 2.5 Cu
1331 1 22.5 1 2.5 Cu
1332 1 22.5 1.5 2 Cu
1333 1 22 1 3 Cu
1334 1 22 1.5 3.5 Cu
1335 1 22.5 1 3.5 Cu
1336 1 22.5 1.5 3 Cu
1337 1 23 1 0 Cu
1338 1 23 1.5 0.5 Cu
1339 1 23.5 1 0.5 Cu
1340 1 23.5 1.5 0 Cu
1341 1 23 1 1 Cu
1342 1 23 1.5 1.5 Cu
1343 1 23.5 1 1.5 Cu
1344 1 23.5 1.5 1 Cu
1345 1 23 1 2 Cu
1346 1 23 1.5 2.5 Cu
1347 1 23.5 1 2.5 Cu
1348 1 23.5 1.5 2 Cu
1349 1 23 1 3 Cu
1350 1 23 1.5 3.5 Cu
1351 1 23.5 1 3.5 Cu
1352 1 23.5 1.5 3 Cu
1353 1 24 1 0 Cu
1354 1 24 1.5 0.5 Cu
1355 1 24.5 1 0.5 Cu
1356 1 24.5 1.5 0 Cu
1357 1 24 1 1 Cu
1358 1 24 1.5 1.5 Cu
1359 1 24.5 1 1.5 Cu
1360 1 24.5 1.5 1 Cu
1361 1 24 1 2 Cu
1362 1 24 1.5 2.5 Cu
1363 1 24.5 1 2.5 Cu
1364 1 24.5 1.5 2 Cu
1365 1 24 1 3 Cu
1366 1 24 1.5 3.5 Cu
1367 1 24.5 1 3.5 Cu
1368 1 24.5 1.5 3 Cu
1369 1 25 1 0 Cu
1370 1 25 1.5 0.5 Cu
1371 1 25.5 1 0.5 Cu
1372 1 25.5 1.5 0 Cu
1373 1 25 1 1 Cu
1374 1 25 1.5 1.5 Cu
1375 1 25.5 1 1.5 Cu
1376 1 25.5 1.5 1 Cu
1377 1 25 1 2 Cu
1378 1 25 1.5 2.5 Cu
1379 1 25.5 1 2.5 Cu
1380 1 25.5 1.5 2 Cu
1381 1 25 1 3 Cu
1382 1 25 1.5 3.5 Cu
1383 1 25.5 1 3.5 Cu
1384 1 25.5 1.5 3 Cu
1385 1 26 1 0 Cu
1386 1 26 1.5 0.5 Cu
1387 1 26.5 1 0.5 Cu
1388 1 26.5 1.5 0 Cu
1389 1 26 1 1 Cu
1390 1 26 1.5 1.5 Cu
1391 1 26.5 1 1.5 Cu
1392 1 26.5 1.5 1 Cu
1393 1 26 1 2 Cu
1394 1 26 1.5 2.5 Cu
1395 1 26.5 1 2.5 Cu
1396 1 26.5 1.5 2 Cu
1397 1 26 1 3 Cu
1398 1 26 1.5 3.5 Cu
1399 1 26.5 1 3.5 Cu
1400 1 26.5 1.5 3 Cu
1401 1 27 1 0 Cu
1402 1 27 1.5 0.5 Cu
1403 1 27.5 1 0.5 Cu
1404 1 27.5 1.5 0 Cu
1405 1 27 1 1 Cu
1406 1 27 1.5 1.5 Cu
1407 1 27.5 1 1.5 Cu
1408 1 27.5 1.5 1 Cu
1409 1 27 1 2 Cu
1410 1 27 1.5 2.5 Cu
1411 1 27.5 1 2.5 Cu
1412 1 27.5 1.5 2 Cu
1413 1 27 1 3 Cu
1414 1 27 1.5 3.5 Cu
1415 1 27.5 1 3.5 Cu
1416 1 27.5 1.5 3 Cu
1417 1 28 1 0 Cu
1418 1 28 1.5 0.5 Cu
1419 1 28.5 1 0.5 Cu
1420 1 28.5 1.5 0 Cu
1421 1 28 1 1 Cu
1422 1 28 1.5 1.5 Cu
1423 1 28.5 1 1.5 Cu
1424 1 28.5 1.5 1 Cu
1425 1 28 1 2 Cu
1426 1 28 1.5 2.5 Cu
1427 1 28.5 1 2.5 Cu
1428 1 28.5 1.5 2 Cu
1429 1 28 1 3 Cu
1430 1 28 1.5 3.5 Cu
1431 1 28.5 1 3.5 Cu
1432 1 28.5 1.5 3 Cu
1433 1 29 1 0 Cu
1434 1 29 1.5 0.5 Cu
1435 1 29.5 1 0.5 Cu
1436 1 29.5 1.5 0 Cu
1437 1 29 1 1 Cu
1438 1 29 1.5 1.5 Cu
1439 1 29.5 1 1.5 Cu
1440 1 29.5 1.5 1 Cu
1441 1 29 1 2 Cu
1442 1 29 1.5 2.5 Cu
1443 1 29.5 1 2.5 Cu
1444 1 29.5 1.5 2 Cu
1445 1 29 1 3 Cu
1446 1 29 1.5 3.5 Cu
1447 1 29.5 1 3.5 Cu
1448 1 29.5 1.5 3 Cu
1449 1 30 1 0 Cu
1450 1 30 1.5 0.5 Cu
1451 1 30.5 1 0.5 Cu
1452 1 30.5 1.5 0 Cu
1453 1 30 1 1 Cu
1454 1 30 1.5 1.5 Cu
1455 1 30.5 1 1.5 Cu
1456 1 30.5 1.5 1 Cu
1457 1 30 1 2 Cu
1458 1 30 1.5 2.5 Cu
1459 1 30.5 1 2.5 Cu
1460 1 30.5 1.5 2 Cu
1461 1 30 1 3 Cu
1462 1 30 1.5 3.5 Cu
1463 1 30.5 1 3.5 Cu
1464 1 30.5 1.5 3 Cu
1465 1 31 1 0 Cu
1466 1 31 1.5 0.5 Cu
1467 1 31.5 1 0.5 Cu
1468 1 31.5 1.5 0 Cu
1469 1 31 1 1 Cu
1470 1 31 1.5 1.5 Cu
1471 1 31.5 1 1.5 Cu
1472 1 31.5 1.5 1 Cu
1473 1 31 1 2 Cu
1474 1 31 1.5 2.5 Cu
1475 1 31.5 1 2.5 Cu
1476 1 31.5 1.5 2 Cu
1477 1 31 1 3 Cu
1478 1 31 1.5 3.5 Cu
1479 1 31.5 1 3.5 Cu
1480 1 31.5 1.5 3 Cu
1481 1 32 1 0 Cu
1482 1 32 1.5 0.5 Cu
1483 1 32.5 1 0.5 Cu
1484 1 32.5 1.5 0 Cu
1485 1 32 1 1 Cu
1486 1 32 1.5 1.5 Cu
1487 1 32.5 1 1.5 Cu
1488 1 32.5 1.5 1 Cu
1489 1 32 1 2 Cu
1490 1 32 1.5 2.5 Cu
1491 1 32.5 1 2.5 Cu
1492 1 32.5 1.5 2 Cu
1493 1 32 1 3 Cu
1494 1 32 1.5 3.5 Cu
1495 1 32.5 1 3.5 Cu
1496 1 32.5 1.5 3 Cu
1497 1 33 1 0 Cu
1498 1 33 1.5 0.5 Cu
1499 1 33.5 1 0.5 Cu
1500 1 33.5 1.5 0 Cu
1501 1 33 1 1 Cu
1502 1 33 1.5 1.5 Cu
1503 1 33.5 1 1.5 Cu
1504 1 33.5 1.5 1 Cu
1505 1 33 1 2 Cu
1506 1 33 1.5 2.5 Cu
1507 1 33.5 1 2.5 Cu
1508 1 33.5 1.5 2 Cu
1509 1 33 1 3 Cu
1510 1 33 1.5 3.5 Cu
1511 1 33.5 1 3.5 Cu
1512 1 33.5 1.5 3 Cu
1513 1 34 1 0 Cu
1514 1 34 1.5 0.5 Cu
1515 1 34.5 1 0.5 Cu
1516 1 34.5 1.5 0 Cu
1517 1 34 1 1 Cu
1518 1 34 1.5 1.5 Cu
1519 1 34.5 1 1.5 Cu
1520 1 34.5 1.5 1 Cu
1521 1 34 1 2 Cu
1522 1 34 1.5 2.5 Cu
1523 1 34.5 1 2.5 Cu
1524 1 34.5 1.5 2 Cu
1525 1 34 1 3 Cu
1526 1 34 1.5 3.5 Cu
1527 1 34.5 1 3.5 Cu
1528 1 34.5 1.5 3 Cu
1529 1 35 1 0 Cu
1530 1 35 1.5 0.5 Cu
1531 1 35.5 1 0.5 Cu
1532 1 35.5 1.5 0 Cu
1533 1 35 1 1 Cu
1534 1 35 1.5 1.5 Cu
1535 1 35.5 1 1.5 Cu
1536 1 35.5 1.5 1 Cu
1537 1 35 1 2 Cu
1538 1 35 1.5 2.5 Cu
1539 1 35.5 1 2.5 Cu
1540 1 35.5 1.5 2 Cu
1541 1 35 1 3 Cu
1542 1 35 1.5 3.5 Cu
1543 1 35.5 1 3.5 Cu
1544 1 35.5 1.5 3 Cu
1545 1 36 1 0 Cu
1546 1 36 1.5 0.5 Cu
1547 1 36.5 1 0.5 Cu
1548 1 36.5 1.5 0 Cu
1549 1 36 1 1 Cu
1550 1 36 1.5 1.5 Cu
1551 1 36.5 1 1.5 Cu
1552 1 36.5 1.5 1 Cu
1553 1 36 1 2 Cu
1554 1 36 1.5 2.5 Cu
1555 1 36.5 1 2.5 Cu
1556 1 36.5 1.5 2 Cu
1557 1 36 1 3 Cu
1558 1 36 1.5 3.5 Cu
1559 1 36.5 1 3.5 Cu