ITEM: TIMESTEP
3605
ITEM: NUMBER OF ATOMS
2160
ITEM: BOX BOUNDS pp pp pp
1.5234156768552333e+01 1.0670222023144795e+02
6.9616047622894943e-04 1.7243711839523769e+01
6.0281841887411842e-04 1.4933492181581151e+01
ITEM: ATOMS id type x y z
1 1 15.9683 1.37811 1.72244
2 1 18.0005 2.09657 0.478034
130 1 18.0005 2.09657 2.96685
3 1 20.0329 2.81503 1.72244
4 1 20.0329 0.659653 0.478034
132 1 20.0329 0.659653 2.96685
5 1 22.0652 1.37811 1.72244
6 1 24.0976 2.09657 0.478034
7 1 26.13 2.81503 1.72244
8 1 26.13 0.659653 0.478034
136 1 24.0976 2.09657 2.96685
138 1 26.13 0.659653 2.96685
9 1 28.1624 1.37811 1.72244
10 1 30.1947 2.09657 0.478034
11 1 32.2271 2.81503 1.72244
12 1 32.2271 0.659654 0.478034
142 1 30.1947 2.09657 2.96685
144 1 32.2271 0.659654 2.96685
13 1 34.2595 1.37811 1.72244
14 1 36.2918 2.09657 0.478034
15 1 38.3242 2.81503 1.72244
16 1 38.3242 0.659654 0.478033
148 1 36.2918 2.09657 2.96685
150 1 38.3242 0.659654 2.96685
17 1 40.3566 1.37811 1.72244
18 1 42.389 2.09657 0.478033
19 1 44.4213 2.81503 1.72244
20 1 44.4213 0.659654 0.478033
154 1 42.389 2.09657 2.96685
155 1 44.4213 0.659654 2.96685
21 1 46.4537 1.37811 1.72244
769 1 48.4859 2.09657 0.478033
771 1 48.4859 2.09657 2.96685
772 1 50.5213 0.659654 0.478033
773 1 50.5213 2.81503 1.72244
774 1 50.5213 0.659654 2.96685
775 1 52.5567 2.09657 0.478033
776 1 52.5567 2.09657 2.96685
778 1 54.5889 1.37811 1.72244
779 1 56.6212 0.659654 0.478033
780 1 56.6212 2.81503 1.72244
781 1 56.6212 0.659654 2.96685
782 1 58.6536 2.09657 0.478033
784 1 58.6536 2.09657 2.96685
785 1 60.686 1.37811 1.72244
786 1 62.7184 2.81503 1.72244
787 1 62.7184 0.659654 0.478033
788 1 64.7507 2.09657 0.478033
790 1 62.7184 0.659654 2.96685
791 1 64.7507 2.09657 2.96685
792 1 66.7831 1.37811 1.72244
793 1 68.8155 2.81503 1.72244
794 1 68.8155 0.659654 0.478033
795 1 70.8478 2.09657 0.478033
797 1 68.8155 0.659654 2.96685
798 1 70.8478 2.09657 2.96685
799 1 72.8802 1.37811 1.72244
800 1 74.9126 2.81503 1.72244
801 1 74.9126 0.659654 0.478033
802 1 76.9449 2.09657 0.478033
803 1 74.9126 0.659654 2.96685
804 1 76.9449 2.09657 2.96685
805 1 78.9773 1.37811 1.72244
806 1 81.0097 2.81503 1.72244
807 1 81.0097 0.659654 0.478033
808 1 83.0421 2.09657 0.478033
809 1 81.0097 0.659654 2.96685
1097 1 83.0421 2.09657 2.96685
810 1 85.0744 1.37811 1.72244
811 1 87.1068 2.81503 1.72244
812 1 87.1068 0.659653 0.478033
1100 1 87.1068 0.659653 2.96685
813 1 89.1392 2.09657 0.478034
814 1 91.1715 1.37811 1.72244
1103 1 89.1392 2.09657 2.96685
816 1 93.2039 2.81503 1.72244
817 1 93.2039 0.659653 0.478034
1108 1 93.2039 0.659653 2.96685
818 1 95.2363 2.09657 0.478034
819 1 97.2687 1.37811 1.72244
1111 1 95.2363 2.09657 2.96685
821 1 99.301 2.81503 1.72244
822 1 99.301 0.659653 0.478034
1116 1 99.301 0.659653 2.96685
823 1 101.333 2.09657 0.478034
824 1 103.366 1.37811 1.72244
1119 1 101.333 2.09657 2.96685
826 1 105.401 2.81503 1.72244
827 1 105.401 0.659653 0.478034
1124 1 105.401 0.659653 2.96685
22 1 15.9683 3.53349 0.478034
23 1 15.9683 5.68887 1.72244
24 1 18.0005 4.25195 1.72244
25 1 18.0005 6.40733 0.478034
160 1 15.9683 3.53349 2.96685
163 1 18.0005 6.40733 2.96685
26 1 20.0329 4.97041 0.478034
166 1 20.0329 4.97041 2.96685
27 1 22.0652 3.53349 0.478034
28 1 22.0652 5.68887 1.72244
168 1 22.0652 3.53349 2.96685
29 1 24.0976 4.25195 1.72244
30 1 24.0976 6.40733 0.478034
31 1 26.13 4.97041 0.478034
171 1 24.0976 6.40733 2.96685
174 1 26.13 4.97041 2.96685
32 1 28.1624 3.53349 0.478034
33 1 28.1624 5.68887 1.72244
176 1 28.1624 3.53349 2.96685
34 1 30.1947 4.25195 1.72244
35 1 30.1947 6.40733 0.478034
36 1 32.2271 4.97041 0.478034
179 1 30.1947 6.40733 2.96685
182 1 32.2271 4.97041 2.96685
37 1 34.2595 3.53349 0.478034
38 1 34.2595 5.68887 1.72244
184 1 34.2595 3.53349 2.96685
39 1 36.2918 4.25195 1.72244
40 1 36.2918 6.40733 0.478034
41 1 38.3242 4.97041 0.478033
187 1 36.2918 6.40733 2.96685
190 1 38.3242 4.97041 2.96685
42 1 40.3566 3.53349 0.478033
43 1 40.3566 5.68887 1.72244
192 1 40.3566 3.53349 2.96685
44 1 42.389 4.25195 1.72244
45 1 42.389 6.40733 0.478033
46 1 44.4213 4.97041 0.478033
195 1 42.389 6.40733 2.96685
196 1 44.4213 4.97041 2.96685
47 1 46.4537 3.53349 0.478033
48 1 46.4537 5.68887 1.72244
200 1 46.4537 3.53349 2.96685
828 1 48.4859 4.25195 1.72244
829 1 48.4859 6.40733 0.478033
830 1 48.4859 6.40733 2.96685
831 1 50.5213 4.97041 0.478033
832 1 50.5213 4.97041 2.96685
833 1 52.5567 4.25195 1.72244
834 1 52.5567 6.40733 0.478033
835 1 52.5567 6.40733 2.96685
836 1 54.5889 3.53349 0.478033
837 1 54.5889 5.68887 1.72244
838 1 54.5889 3.53349 2.96685
839 1 56.6212 4.97041 0.478033
840 1 56.6212 4.97041 2.96685
841 1 58.6536 4.25195 1.72244
842 1 58.6536 6.40733 0.478033
843 1 58.6536 6.40733 2.96685
844 1 60.686 3.53349 0.478033
845 1 60.686 5.68887 1.72244
846 1 60.686 3.53349 2.96685
847 1 62.7184 4.97041 0.478033
848 1 64.7507 4.25195 1.72244
849 1 64.7507 6.40733 0.478033
850 1 62.7184 4.97041 2.96685
851 1 64.7507 6.40733 2.96685
852 1 66.7831 3.53349 0.478033
853 1 66.7831 5.68887 1.72244
854 1 66.7831 3.53349 2.96685
855 1 68.8155 4.97041 0.478033
856 1 70.8478 4.25195 1.72244
857 1 70.8478 6.40733 0.478033
858 1 68.8155 4.97041 2.96685
859 1 70.8478 6.40733 2.96685
860 1 72.8802 3.53349 0.478033
861 1 72.8802 5.68887 1.72244
862 1 72.8802 3.53349 2.96685
863 1 74.9126 4.97041 0.478033
864 1 76.9449 4.25195 1.72244
865 1 76.9449 6.40733 0.478033
866 1 74.9126 4.97041 2.96685
867 1 76.9449 6.40733 2.96685
868 1 78.9773 3.53349 0.478033
869 1 78.9773 5.68887 1.72244
870 1 78.9773 3.53349 2.96685
871 1 81.0097 4.97041 0.478033
872 1 83.0421 4.25195 1.72244
873 1 83.0421 6.40733 0.478033
874 1 81.0097 4.97041 2.96685
1155 1 83.0421 6.40733 2.96685
875 1 85.0744 3.53349 0.478033
876 1 85.0744 5.68887 1.72244
1158 1 85.0744 3.53349 2.96685
877 1 87.1068 4.97041 0.478033
1161 1 87.1068 4.97041 2.96685
815 1 91.1715 3.53349 0.478034
878 1 89.1392 4.25195 1.72244
879 1 89.1392 6.40733 0.478034
880 1 91.1715 5.68887 1.72244
1106 1 91.1715 3.53349 2.96685
1163 1 89.1392 6.40733 2.96685
881 1 93.2039 4.97041 0.478034
1167 1 93.2039 4.97041 2.96685
820 1 97.2687 3.53349 0.478034
882 1 95.2363 4.25195 1.72244
883 1 95.2363 6.40733 0.478034
884 1 97.2687 5.68887 1.72244
1114 1 97.2687 3.53349 2.96685
1169 1 95.2363 6.40733 2.96685
885 1 99.301 4.97041 0.478034
1173 1 99.301 4.97041 2.96685
825 1 103.366 3.53349 0.478034
886 1 101.333 4.25195 1.72244
887 1 101.333 6.40733 0.478034
888 1 103.366 5.68887 1.72244
1121 1 103.366 3.53349 2.96685
1175 1 101.333 6.40733 2.96685
889 1 105.401 4.97041 0.478034
1179 1 105.401 4.97041 2.96685
49 1 15.9683 9.99962 1.72244
50 1 15.9683 7.84424 0.478034
51 1 18.0005 8.5627 1.72244
203 1 15.9683 7.84424 2.96685
52 1 20.0329 7.12578 1.72244
53 1 20.0329 9.28116 0.478034
208 1 20.0329 9.28116 2.96685
54 1 22.0652 9.99962 1.72244
55 1 22.0652 7.84424 0.478034
210 1 22.0652 7.84424 2.96685
56 1 26.13 7.12578 1.72244
57 1 24.0976 8.5627 1.72244
58 1 26.13 9.28116 0.478034
215 1 26.13 9.28116 2.96685
59 1 28.1624 9.99962 1.72244
60 1 28.1624 7.84424 0.478034
217 1 28.1624 7.84424 2.96685
61 1 32.2271 7.12578 1.72244
62 1 30.1947 8.5627 1.72244
63 1 32.2271 9.28116 0.478034
222 1 32.2271 9.28116 2.96685
64 1 34.2595 9.99962 1.72244
65 1 34.2595 7.84424 0.478034
224 1 34.2595 7.84424 2.96685
66 1 38.3242 7.12578 1.72244
67 1 36.2918 8.5627 1.72244
68 1 38.3242 9.28116 0.478033
229 1 38.3242 9.28116 2.96685
69 1 40.3566 9.99962 1.72244
70 1 40.3566 7.84424 0.478033
231 1 40.3566 7.84424 2.96685
71 1 44.4213 7.12578 1.72244
72 1 42.389 8.5627 1.72244
73 1 44.4213 9.28116 0.478033
235 1 44.4213 9.28116 2.96685
74 1 46.4537 9.99962 1.72244
75 1 46.4537 7.84424 0.478033
238 1 46.4537 7.84424 2.96685
890 1 48.4859 8.5627 1.72244
891 1 50.5213 7.12578 1.72244
892 1 50.5213 9.28116 0.478033
893 1 50.5213 9.28116 2.96685
894 1 52.5567 8.5627 1.72244
895 1 54.5889 7.84424 0.478033
896 1 54.5889 9.99962 1.72244
897 1 54.5889 7.84424 2.96685
898 1 56.6212 7.12578 1.72244
899 1 56.6212 9.28116 0.478033
900 1 56.6212 9.28116 2.96685
901 1 58.6536 8.5627 1.72244
902 1 60.686 7.84424 0.478033
903 1 60.686 9.99962 1.72244
904 1 60.686 7.84424 2.96685
905 1 62.7184 7.12578 1.72244
906 1 62.7184 9.28116 0.478033
907 1 64.7507 8.5627 1.72244
908 1 62.7184 9.28116 2.96685
909 1 66.7831 7.84424 0.478033
910 1 66.7831 9.99962 1.72244
911 1 66.7831 7.84424 2.96685
912 1 68.8155 7.12578 1.72244
913 1 68.8155 9.28116 0.478033
914 1 70.8478 8.5627 1.72244
915 1 68.8155 9.28116 2.96685
916 1 72.8802 9.99962 1.72244
917 1 72.8802 7.84424 0.478033
918 1 72.8802 7.84424 2.96685
919 1 74.9126 7.12578 1.72244
920 1 74.9126 9.28116 0.478033
921 1 76.9449 8.5627 1.72244
922 1 74.9126 9.28116 2.96685
923 1 78.9773 9.99962 1.72244
924 1 78.9773 7.84424 0.478033
925 1 78.9773 7.84424 2.96685
926 1 81.0097 7.12578 1.72244
927 1 81.0097 9.28116 0.478033
928 1 83.0421 8.5627 1.72244
929 1 81.0097 9.28116 2.96685
930 1 85.0744 9.99962 1.72244
931 1 85.0744 7.84424 0.478033
1210 1 85.0744 7.84424 2.96685
932 1 87.1068 7.12578 1.72244
933 1 87.1068 9.28116 0.478033
1214 1 87.1068 9.28116 2.96685
934 1 89.1392 8.5627 1.72244
935 1 91.1715 9.99962 1.72244
936 1 91.1715 7.84424 0.478034
1217 1 91.1715 7.84424 2.96685
937 1 93.2039 7.12578 1.72244
938 1 93.2039 9.28116 0.478034
1221 1 93.2039 9.28116 2.96685
939 1 95.2363 8.5627 1.72244
940 1 97.2687 9.99962 1.72244
941 1 97.2687 7.84424 0.478034
1224 1 97.2687 7.84424 2.96685
942 1 99.301 7.12578 1.72244
943 1 99.301 9.28116 0.478034
1228 1 99.301 9.28116 2.96685
944 1 101.333 8.5627 1.72244
945 1 103.366 9.99962 1.72244
946 1 103.366 7.84424 0.478034
1231 1 103.366 7.84424 2.96685
947 1 105.401 7.12578 1.72244
948 1 105.401 9.28116 0.478034
1235 1 105.401 9.28116 2.96685
76 1 15.9683 12.155 0.478034
77 1 18.0005 10.7181 0.478034
78 1 18.0005 12.8735 1.72244
241 1 15.9683 12.155 2.96685
243 1 18.0005 10.7181 2.96685
79 1 20.0329 11.4365 1.72244
80 1 20.0329 13.5919 0.478034
246 1 20.0329 13.5919 2.96685
81 1 22.0652 12.155 0.478034
249 1 22.0652 12.155 2.96685
82 1 24.0976 10.7181 0.478034
83 1 24.0976 12.8735 1.72244
84 1 26.13 11.4365 1.72244
85 1 26.13 13.5919 0.478034
251 1 24.0976 10.7181 2.96685
254 1 26.13 13.5919 2.96685
86 1 28.1624 12.155 0.478034
257 1 28.1624 12.155 2.96685
87 1 30.1947 10.7181 0.478034
88 1 30.1947 12.8735 1.72244
89 1 32.2271 11.4365 1.72244
90 1 32.2271 13.5919 0.478034
259 1 30.1947 10.7181 2.96685
262 1 32.2271 13.5919 2.96685
91 1 34.2595 12.155 0.478034
265 1 34.2595 12.155 2.96685
92 1 36.2918 10.7181 0.478034
93 1 36.2918 12.8735 1.72244
94 1 38.3242 11.4365 1.72244
95 1 38.3242 13.5919 0.478033
267 1 36.2918 10.7181 2.96685
270 1 38.3242 13.5919 2.96685
96 1 40.3566 12.155 0.478033
273 1 40.3566 12.155 2.96685
97 1 42.389 10.7181 0.478033
98 1 42.389 12.8735 1.72244
99 1 44.4213 11.4365 1.72244
100 1 44.4213 13.5919 0.478033
275 1 42.389 10.7181 2.96685
276 1 44.4213 13.5919 2.96685
101 1 46.4537 12.155 0.478033
281 1 46.4537 12.155 2.96685
949 1 48.4859 10.7181 0.478033
950 1 48.4859 12.8735 1.72244
951 1 48.4859 10.7181 2.96685
952 1 50.5213 11.4365 1.72244
1015 1 50.5213 13.5919 0.478033
1016 1 50.5213 13.5919 2.96685
953 1 52.5567 10.7181 0.478033
954 1 52.5567 12.8735 1.72244
955 1 52.5567 10.7181 2.96685
956 1 54.5889 12.155 0.478033
957 1 54.5889 12.155 2.96685
958 1 56.6212 11.4365 1.72244
959 1 56.6212 13.5919 0.478033
960 1 56.6212 13.5919 2.96685
961 1 58.6536 10.7181 0.478033
962 1 58.6536 12.8735 1.72244
963 1 58.6536 10.7181 2.96685
964 1 60.686 12.155 0.478033
965 1 60.686 12.155 2.96685
966 1 62.7184 11.4365 1.72244
967 1 62.7184 13.5919 0.478033
968 1 64.7507 12.8735 1.72244
969 1 64.7507 10.7181 0.478033
970 1 62.7184 13.5919 2.96685
971 1 64.7507 10.7181 2.96685
972 1 66.7831 12.155 0.478033
973 1 66.7831 12.155 2.96685
974 1 68.8155 11.4365 1.72244
975 1 68.8155 13.5919 0.478033
976 1 70.8478 12.8735 1.72244
977 1 70.8478 10.7181 0.478033
978 1 68.8155 13.5919 2.96685
979 1 70.8478 10.7181 2.96685
980 1 72.8802 12.155 0.478033
981 1 72.8802 12.155 2.96685
982 1 74.9126 11.4365 1.72244
983 1 74.9126 13.5919 0.478033
984 1 76.9449 12.8735 1.72244
985 1 76.9449 10.7181 0.478033
986 1 74.9126 13.5919 2.96685
987 1 76.9449 10.7181 2.96685
988 1 78.9773 12.155 0.478033
989 1 78.9773 12.155 2.96685
990 1 81.0097 11.4365 1.72244
991 1 81.0097 13.5919 0.478033
992 1 83.0421 12.8735 1.72244
993 1 83.0421 10.7181 0.478033
994 1 81.0097 13.5919 2.96685
1265 1 83.0421 10.7181 2.96685
995 1 85.0744 12.155 0.478033
1268 1 85.0744 12.155 2.96685
996 1 87.1068 11.4365 1.72244
997 1 87.1068 13.5919 0.478033
1271 1 87.1068 13.5919 2.96685
998 1 89.1392 12.8735 1.72244
999 1 89.1392 10.7181 0.478034
1000 1 91.1715 12.155 0.478034
1273 1 89.1392 10.7181 2.96685
1276 1 91.1715 12.155 2.96685
1001 1 93.2039 11.4365 1.72244
1002 1 93.2039 13.5919 0.478034
1278 1 93.2039 13.5919 2.96685
1003 1 95.2363 12.8735 1.72244
1004 1 95.2363 10.7181 0.478034
1005 1 97.2687 12.155 0.478034
1281 1 95.2363 10.7181 2.96685
1284 1 97.2687 12.155 2.96685
1006 1 99.301 11.4365 1.72244
1007 1 99.301 13.5919 0.478034
1286 1 99.301 13.5919 2.96685
1008 1 101.333 12.8735 1.72244
1009 1 101.333 10.7181 0.478034
1010 1 103.366 12.155 0.478034
1289 1 101.333 10.7181 2.96685
1291 1 103.366 12.155 2.96685
1011 1 105.401 11.4365 1.72244
1012 1 105.401 13.5919 0.478034
1294 1 105.401 13.5919 2.96685
102 1 15.9683 14.3104 1.72244
103 1 15.9683 16.4658 0.478034
104 1 18.0005 17.1842 1.72244
105 1 18.0005 15.0288 0.478034
283 1 15.9683 16.4658 2.96685
286 1 18.0005 15.0288 2.96685
106 1 20.0329 15.7473 1.72244
107 1 22.0652 14.3104 1.72244
108 1 22.0652 16.4658 0.478034
290 1 22.0652 16.4658 2.96685
109 1 24.0976 17.1842 1.72244
110 1 24.0976 15.0288 0.478034
111 1 26.13 15.7473 1.72244
293 1 24.0976 15.0288 2.96685
112 1 28.1624 14.3104 1.72244
113 1 28.1624 16.4658 0.478034
297 1 28.1624 16.4658 2.96685
114 1 30.1947 17.1842 1.72244
115 1 30.1947 15.0288 0.478034
116 1 32.2271 15.7473 1.72244
300 1 30.1947 15.0288 2.96685
117 1 34.2595 14.3104 1.72244
118 1 34.2595 16.4658 0.478034
304 1 34.2595 16.4658 2.96685
119 1 36.2918 17.1842 1.72244
120 1 36.2918 15.0288 0.478034
121 1 38.3242 15.7473 1.72244
307 1 36.2918 15.0288 2.96685
122 1 40.3566 14.3104 1.72244
123 1 40.3566 16.4658 0.478033
311 1 40.3566 16.4658 2.96685
124 1 42.389 17.1842 1.72244
125 1 42.389 15.0288 0.478033
126 1 44.4213 15.7473 1.72244
314 1 42.389 15.0288 2.96685
127 1 46.4537 14.3104 1.72244
128 1 46.4537 16.4658 0.478033
318 1 46.4537 16.4658 2.96685
770 1 48.4859 17.1842 1.72244
1013 1 48.4859 15.0288 0.478033
1014 1 48.4859 15.0288 2.96685
1017 1 50.5213 15.7473 1.72244
777 1 52.5567 17.1842 1.72244
1018 1 52.5567 15.0288 0.478033
1019 1 52.5567 15.0288 2.96685
1020 1 54.5889 16.4658 0.478033
1021 1 54.5889 14.3104 1.72244
1022 1 54.5889 16.4658 2.96685
783 1 58.6536 17.1842 1.72244
1023 1 56.6212 15.7473 1.72244
1024 1 58.6536 15.0288 0.478033
1025 1 58.6536 15.0288 2.96685
1026 1 60.686 14.3104 1.72244
1027 1 60.686 16.4658 0.478033
1028 1 60.686 16.4658 2.96685
789 1 64.7507 17.1842 1.72244
1029 1 62.7184 15.7473 1.72244
1030 1 64.7507 15.0288 0.478033
1031 1 64.7507 15.0288 2.96685
1032 1 66.7831 14.3104 1.72244
1033 1 66.7831 16.4658 0.478033
1034 1 66.7831 16.4658 2.96685
796 1 70.8478 17.1842 1.72244
1035 1 68.8155 15.7473 1.72244
1036 1 70.8478 15.0288 0.478033
1037 1 70.8478 15.0288 2.96685
1038 1 72.8802 14.3104 1.72244
1039 1 72.8802 16.4658 0.478033
1040 1 72.8802 16.4658 2.96685
1041 1 74.9126 15.7473 1.72244
1042 1 76.9449 17.1842 1.72244
1043 1 76.9449 15.0288 0.478033
1044 1 76.9449 15.0288 2.96685
1045 1 78.9773 14.3104 1.72244
1046 1 78.9773 16.4658 0.478033
1047 1 78.9773 16.4658 2.96685
1048 1 81.0097 15.7473 1.72244
1049 1 83.0421 17.1842 1.72244
1050 1 83.0421 15.0288 0.478033
1322 1 83.0421 15.0288 2.96685
1051 1 85.0744 14.3104 1.72244
1052 1 85.0744 16.4658 0.478033
1324 1 85.0744 16.4658 2.96685
1053 1 87.1068 15.7473 1.72244
1054 1 89.1392 17.1842 1.72244
1055 1 89.1392 15.0288 0.478034
1056 1 91.1715 14.3104 1.72244
1057 1 91.1715 16.4658 0.478034
1329 1 89.1392 15.0288 2.96685
1331 1 91.1715 16.4658 2.96685
1058 1 93.2039 15.7473 1.72244
1059 1 95.2363 17.1842 1.72244
1060 1 95.2363 15.0288 0.478034
1061 1 97.2687 14.3104 1.72244
1062 1 97.2687 16.4658 0.478034
1336 1 95.2363 15.0288 2.96685
1338 1 97.2687 16.4658 2.96685
1063 1 99.301 15.7473 1.72244
1064 1 101.333 17.1842 1.72244
1065 1 101.333 15.0288 0.478034
1066 1 103.366 14.3104 1.72244
1067 1 103.366 16.4658 0.478034
1343 1 101.333 15.0288 2.96685
1344 1 103.366 16.4658 2.96685
1068 1 105.401 15.7473 1.72244
129 1 15.9683 1.37811 4.21126
131 1 18.0005 2.09657 5.45566
133 1 20.0329 2.81503 4.21126
134 1 20.0329 0.659653 5.45566
135 1 22.0652 1.37811 4.21126
137 1 24.0976 2.09657 5.45566
139 1 26.13 2.81503 4.21126
140 1 26.13 0.659653 5.45566
141 1 28.1624 1.37811 4.21126
143 1 30.1947 2.09657 5.45566
145 1 32.2271 2.81503 4.21126
146 1 32.2271 0.659654 5.45566
147 1 34.2595 1.37811 4.21126
149 1 36.2918 2.09657 5.45566
151 1 38.3242 2.81503 4.21126
152 1 38.3242 0.659654 5.45566
153 1 40.3566 1.37811 4.21126
156 1 42.389 2.09657 5.45566
157 1 44.4213 2.81503 4.21126
158 1 44.4213 0.659654 5.45566
159 1 46.4537 1.37811 4.21126
1069 1 48.4859 2.09657 5.45566
1071 1 50.5213 2.81503 4.21126
1072 1 50.5213 0.659654 5.45566
1073 1 52.5567 2.09657 5.45566
1075 1 54.5889 1.37811 4.21126
1076 1 56.6212 2.81503 4.21126
1077 1 56.6212 0.659654 5.45566
1078 1 58.6536 2.09657 5.45566
1080 1 60.686 1.37811 4.21126
1081 1 62.7184 2.81503 4.21126
1082 1 62.7184 0.659654 5.45566
1083 1 64.7507 2.09657 5.45566
1085 1 66.7831 1.37811 4.21126
1086 1 68.8155 2.81503 4.21126
1087 1 68.8155 0.659654 5.45566
1088 1 70.8478 2.09657 5.45566
1090 1 72.8802 1.37811 4.21126
1091 1 74.9126 0.659654 5.45566
1092 1 74.9126 2.81503 4.21126
1093 1 76.9449 2.09657 5.45566
1094 1 78.9773 1.37811 4.21126
1095 1 81.0097 0.659654 5.45566
1096 1 81.0097 2.81503 4.21126
1098 1 83.0421 2.09657 5.45566
1099 1 85.0744 1.37811 4.21126
1101 1 87.1068 0.659653 5.45566
1102 1 87.1068 2.81503 4.21126
1104 1 89.1392 2.09657 5.45566
1105 1 91.1715 1.37811 4.21126
1109 1 93.2039 0.659653 5.45566
1110 1 93.2039 2.81503 4.21126
1112 1 95.2363 2.09657 5.45566
1113 1 97.2687 1.37811 4.21126
1117 1 99.301 2.81503 4.21126
1118 1 99.301 0.659653 5.45566
1120 1 103.366 1.37811 4.21126
1122 1 101.333 2.09657 5.45566
1125 1 105.401 2.81503 4.21126
1126 1 105.401 0.659653 5.45566
161 1 15.9683 3.53349 5.45566
162 1 15.9683 5.68887 4.21126
164 1 18.0005 4.25195 4.21126
165 1 18.0005 6.40733 5.45566
167 1 20.0329 4.97041 5.45566
169 1 22.0652 3.53349 5.45566
170 1 22.0652 5.68887 4.21126
172 1 24.0976 4.25195 4.21126
173 1 24.0976 6.40733 5.45566
175 1 26.13 4.97041 5.45566
177 1 28.1624 3.53349 5.45566
178 1 28.1624 5.68887 4.21126
180 1 30.1947 4.25195 4.21126
181 1 30.1947 6.40733 5.45566
183 1 32.2271 4.97041 5.45566
185 1 34.2595 3.53349 5.45566
186 1 34.2595 5.68887 4.21126
188 1 36.2918 4.25195 4.21126
189 1 36.2918 6.40733 5.45566
191 1 38.3242 4.97041 5.45566
193 1 40.3566 3.53349 5.45566
194 1 40.3566 5.68887 4.21126
197 1 42.389 4.25195 4.21126
198 1 42.389 6.40733 5.45566
199 1 44.4213 4.97041 5.45566
201 1 46.4537 3.53349 5.45566
202 1 46.4537 5.68887 4.21126
1127 1 48.4859 4.25195 4.21126
1128 1 48.4859 6.40733 5.45566
1129 1 50.5213 4.97041 5.45566
1130 1 52.5567 4.25195 4.21126
1131 1 52.5567 6.40733 5.45566
1132 1 54.5889 3.53349 5.45566
1133 1 54.5889 5.68887 4.21126
1134 1 56.6212 4.97041 5.45566
1135 1 58.6536 4.25195 4.21126
1136 1 58.6536 6.40733 5.45566
1137 1 60.686 3.53349 5.45566
1138 1 60.686 5.68887 4.21126
1139 1 62.7184 4.97041 5.45566
1140 1 64.7507 4.25195 4.21126
1141 1 64.7507 6.40733 5.45566
1142 1 66.7831 3.53349 5.45566
1143 1 66.7831 5.68887 4.21126
1144 1 68.8155 4.97041 5.45566
1145 1 70.8478 4.25195 4.21126
1146 1 70.8478 6.40733 5.45566
1147 1 72.8802 3.53349 5.45566
1148 1 72.8802 5.68887 4.21126
1149 1 74.9126 4.97041 5.45566
1150 1 76.9449 6.40733 5.45566
1151 1 76.9449 4.25195 4.21126
1152 1 78.9773 3.53349 5.45566
1153 1 78.9773 5.68887 4.21126
1154 1 81.0097 4.97041 5.45566
1156 1 83.0421 6.40733 5.45566
1157 1 83.0421 4.25195 4.21126
1159 1 85.0744 3.53349 5.45566
1160 1 85.0744 5.68887 4.21126
1162 1 87.1068 4.97041 5.45566
1107 1 91.1715 3.53349 5.45566
1164 1 89.1392 6.40733 5.45566
1165 1 89.1392 4.25195 4.21126
1166 1 91.1715 5.68887 4.21126
1168 1 93.2039 4.97041 5.45566
1115 1 97.2687 3.53349 5.45566
1170 1 95.2363 4.25195 4.21126
1171 1 95.2363 6.40733 5.45566
1172 1 97.2687 5.68887 4.21126
1174 1 99.301 4.97041 5.45566
1123 1 103.366 3.53349 5.45566
1176 1 101.333 4.25195 4.21126
1177 1 103.366 5.68887 4.21126
1178 1 101.333 6.40733 5.45566
1180 1 105.401 4.97041 5.45566
204 1 15.9683 7.84424 5.45566
205 1 15.9683 9.99962 4.21126
206 1 18.0005 8.5627 4.21126
207 1 20.0329 7.12578 4.21126
209 1 20.0329 9.28116 5.45566
211 1 22.0652 7.84424 5.45566
212 1 22.0652 9.99962 4.21126
213 1 26.13 7.12578 4.21126
214 1 24.0976 8.5627 4.21126
216 1 26.13 9.28116 5.45566
218 1 28.1624 7.84424 5.45566
219 1 28.1624 9.99962 4.21126
220 1 32.2271 7.12578 4.21126
221 1 30.1947 8.5627 4.21126
223 1 32.2271 9.28116 5.45566
225 1 34.2595 7.84424 5.45566
226 1 34.2595 9.99962 4.21126
227 1 38.3242 7.12578 4.21126
228 1 36.2918 8.5627 4.21126
230 1 38.3242 9.28116 5.45566
232 1 40.3566 7.84424 5.45566
233 1 40.3566 9.99962 4.21126
234 1 44.4213 7.12578 4.21126
236 1 42.389 8.5627 4.21126
237 1 44.4213 9.28116 5.45566
239 1 46.4537 7.84424 5.45566
240 1 46.4537 9.99962 4.21126
1181 1 48.4859 8.5627 4.21126
1182 1 50.5213 7.12578 4.21126
1183 1 50.5213 9.28116 5.45566
1184 1 52.5567 8.5627 4.21126
1185 1 54.5889 9.99962 4.21126
1186 1 54.5889 7.84424 5.45566
1187 1 56.6212 7.12578 4.21126
1188 1 56.6212 9.28116 5.45566
1189 1 58.6536 8.5627 4.21126
1190 1 60.686 9.99962 4.21126
1191 1 60.686 7.84424 5.45566
1192 1 62.7184 7.12578 4.21126
1193 1 62.7184 9.28116 5.45566
1194 1 64.7507 8.5627 4.21126
1195 1 66.7831 9.99962 4.21126
1196 1 66.7831 7.84424 5.45566
1197 1 68.8155 7.12578 4.21126
1198 1 68.8155 9.28116 5.45566
1199 1 70.8478 8.5627 4.21126
1200 1 72.8802 9.99962 4.21126
1201 1 72.8802 7.84424 5.45566
1202 1 74.9126 7.12578 4.21126
1203 1 74.9126 9.28116 5.45566
1204 1 76.9449 8.5627 4.21126
1205 1 78.9773 7.84424 5.45566
1206 1 78.9773 9.99962 4.21126
1207 1 81.0097 7.12578 4.21126
1208 1 81.0097 9.28116 5.45566
1209 1 83.0421 8.5627 4.21126
1211 1 85.0744 7.84424 5.45566
1212 1 85.0744 9.99962 4.21126
1213 1 87.1068 7.12578 4.21126
1215 1 87.1068 9.28116 5.45566
1216 1 89.1392 8.5627 4.21126
1218 1 91.1715 7.84424 5.45566
1219 1 91.1715 9.99962 4.21126
1220 1 93.2039 7.12578 4.21126
1222 1 93.2039 9.28116 5.45566
1223 1 95.2363 8.5627 4.21126
1225 1 97.2687 9.99962 4.21126
1226 1 97.2687 7.84424 5.45566
1227 1 99.301 7.12578 4.21126
1229 1 99.301 9.28116 5.45566
1230 1 101.333 8.5627 4.21126
1232 1 103.366 9.99962 4.21126
1233 1 103.366 7.84424 5.45566
1234 1 105.401 7.12578 4.21126
1236 1 105.401 9.28116 5.45566
242 1 15.9683 12.155 5.45566
244 1 18.0005 10.7181 5.45566
245 1 18.0005 12.8735 4.21126
247 1 20.0329 11.4365 4.21126
248 1 20.0329 13.5919 5.45566
250 1 22.0652 12.155 5.45566
252 1 24.0976 10.7181 5.45566
253 1 24.0976 12.8735 4.21126
255 1 26.13 11.4365 4.21126
256 1 26.13 13.5919 5.45566
258 1 28.1624 12.155 5.45566
260 1 30.1947 10.7181 5.45566
261 1 30.1947 12.8735 4.21126
263 1 32.2271 11.4365 4.21126
264 1 32.2271 13.5919 5.45566
266 1 34.2595 12.155 5.45566
268 1 36.2918 10.7181 5.45566
269 1 36.2918 12.8735 4.21126
271 1 38.3242 11.4365 4.21126
272 1 38.3242 13.5919 5.45566
274 1 40.3566 12.155 5.45566
277 1 42.389 10.7181 5.45566
278 1 42.389 12.8735 4.21126
279 1 44.4213 11.4365 4.21126
280 1 44.4213 13.5919 5.45566
282 1 46.4537 12.155 5.45566
1237 1 48.4859 10.7181 5.45566
1238 1 48.4859 12.8735 4.21126
1239 1 50.5213 11.4365 4.21126
1298 1 50.5213 13.5919 5.45566
1240 1 52.5567 12.8735 4.21126
1241 1 52.5567 10.7181 5.45566
1242 1 54.5889 12.155 5.45566
1243 1 56.6212 11.4365 4.21126
1244 1 56.6212 13.5919 5.45566
1245 1 58.6536 12.8735 4.21126
1246 1 58.6536 10.7181 5.45566
1247 1 60.686 12.155 5.45566
1248 1 62.7184 11.4365 4.21126
1249 1 62.7184 13.5919 5.45566
1250 1 64.7507 12.8735 4.21126
1251 1 64.7507 10.7181 5.45566
1252 1 66.7831 12.155 5.45566
1253 1 68.8155 11.4365 4.21126
1254 1 68.8155 13.5919 5.45566
1255 1 70.8478 12.8735 4.21126
1256 1 70.8478 10.7181 5.45566
1257 1 72.8802 12.155 5.45566
1258 1 74.9126 11.4365 4.21126
1259 1 74.9126 13.5919 5.45566
1260 1 76.9449 10.7181 5.45566
1261 1 76.9449 12.8735 4.21126
1262 1 78.9773 12.155 5.45566
1263 1 81.0097 11.4365 4.21126
1264 1 81.0097 13.5919 5.45566
1266 1 83.0421 10.7181 5.45566
1267 1 83.0421 12.8735 4.21126
1269 1 85.0744 12.155 5.45566
1270 1 87.1068 11.4365 4.21126
1272 1 87.1068 13.5919 5.45566
1274 1 89.1392 10.7181 5.45566
1275 1 89.1392 12.8735 4.21126
1277 1 91.1715 12.155 5.45566
1279 1 93.2039 11.4365 4.21126
1280 1 93.2039 13.5919 5.45566
1282 1 95.2363 12.8735 4.21126
1283 1 95.2363 10.7181 5.45566
1285 1 97.2687 12.155 5.45566
1287 1 99.301 11.4365 4.21126
1288 1 99.301 13.5919 5.45566
1290 1 101.333 12.8735 4.21126
1292 1 101.333 10.7181 5.45566
1293 1 103.366 12.155 5.45566
1295 1 105.401 11.4365 4.21126
1296 1 105.401 13.5919 5.45566
284 1 15.9683 14.3104 4.21126
285 1 15.9683 16.4658 5.45566
287 1 18.0005 17.1842 4.21126
288 1 18.0005 15.0288 5.45566
289 1 20.0329 15.7473 4.21126
291 1 22.0652 14.3104 4.21126
292 1 22.0652 16.4658 5.45566
294 1 24.0976 17.1842 4.21126
295 1 24.0976 15.0288 5.45566
296 1 26.13 15.7473 4.21126
298 1 28.1624 14.3104 4.21126
299 1 28.1624 16.4658 5.45566
301 1 30.1947 17.1842 4.21126
302 1 30.1947 15.0288 5.45566
303 1 32.2271 15.7473 4.21126
305 1 34.2595 14.3104 4.21126
306 1 34.2595 16.4658 5.45566
308 1 36.2918 17.1842 4.21126
309 1 36.2918 15.0288 5.45566
310 1 38.3242 15.7473 4.21126
312 1 40.3566 14.3104 4.21126
313 1 40.3566 16.4658 5.45566
315 1 42.389 17.1842 4.21126
316 1 42.389 15.0288 5.45566
317 1 44.4213 15.7473 4.21126
319 1 46.4537 14.3104 4.21126
320 1 46.4537 16.4658 5.45566
1070 1 48.4859 17.1842 4.21126
1297 1 48.4859 15.0288 5.45566
1299 1 50.5213 15.7473 4.21126
1074 1 52.5567 17.1842 4.21126
1300 1 52.5567 15.0288 5.45566
1301 1 54.5889 14.3104 4.21126
1302 1 54.5889 16.4658 5.45566
1079 1 58.6536 17.1842 4.21126
1303 1 56.6212 15.7473 4.21126
1304 1 58.6536 15.0288 5.45566
1305 1 60.686 14.3104 4.21126
1306 1 60.686 16.4658 5.45566
1084 1 64.7507 17.1842 4.21126
1307 1 62.7184 15.7473 4.21126
1308 1 64.7507 15.0288 5.45566
1309 1 66.7831 14.3104 4.21126
1310 1 66.7831 16.4658 5.45566
1089 1 70.8478 17.1842 4.21126
1311 1 68.8155 15.7473 4.21126
1312 1 70.8478 15.0288 5.45566
1313 1 72.8802 14.3104 4.21126
1314 1 72.8802 16.4658 5.45566
1315 1 74.9126 15.7473 4.21126
1316 1 76.9449 17.1842 4.21126
1317 1 76.9449 15.0288 5.45566
1318 1 78.9773 14.3104 4.21126
1319 1 78.9773 16.4658 5.45566
1320 1 81.0097 15.7473 4.21126
1321 1 83.0421 17.1842 4.21126
1323 1 83.0421 15.0288 5.45566
1325 1 85.0744 14.3104 4.21126
1326 1 85.0744 16.4658 5.45566
1327 1 87.1068 15.7473 4.21126
1328 1 89.1392 17.1842 4.21126
1330 1 89.1392 15.0288 5.45566
1332 1 91.1715 14.3104 4.21126
1333 1 91.1715 16.4658 5.45566
1334 1 93.2039 15.7473 4.21126
1335 1 95.2363 17.1842 4.21126
1337 1 95.2363 15.0288 5.45566
1339 1 97.2687 14.3104 4.21126
1340 1 97.2687 16.4658 5.45566
1341 1 99.301 15.7473 4.21126
1342 1 101.333 17.1842 4.21126
1345 1 103.366 14.3104 4.21126
1346 1 101.333 15.0288 5.45566
1347 1 103.366 16.4658 5.45566
1348 1 105.401 15.7473 4.21126
321 1 15.9683 1.37811 6.70007
322 1 18.0005 2.09657 7.94448
323 1 20.0329 2.81503 6.70007
324 1 20.0329 0.659653 7.94448
325 1 22.0652 1.37811 6.70007
326 1 24.0976 2.09657 7.94448
327 1 26.13 2.81503 6.70007
328 1 26.13 0.659653 7.94448
329 1 28.1624 1.37811 6.70007
330 1 30.1947 2.09657 7.94448
331 1 32.2271 2.81503 6.70007
332 1 32.2271 0.659654 7.94448
333 1 34.2595 1.37811 6.70007
334 1 36.2918 2.09657 7.94448
335 1 38.3242 2.81503 6.70007
336 1 38.3242 0.659654 7.94448
337 1 40.3566 1.37811 6.70007
338 1 42.389 2.09657 7.94448
339 1 44.4213 2.81503 6.70007
340 1 44.4213 0.659654 7.94448
341 1 46.4537 1.37811 6.70007
1349 1 48.4859 2.09657 7.94448
1352 1 50.5213 0.659654 7.94448
1353 1 50.5213 2.81503 6.70007
1354 1 52.5567 2.09657 7.94448
1358 1 54.5889 1.37811 6.70007
1360 1 56.6212 0.659654 7.94448
1361 1 56.6212 2.81503 6.70007
1362 1 58.6536 2.09657 7.94448
1366 1 60.686 1.37811 6.70007
1368 1 62.7184 2.81503 6.70007
1369 1 62.7184 0.659654 7.94448
1370 1 64.7507 2.09657 7.94448
1373 1 66.7831 1.37811 6.70007
1374 1 68.8155 2.81503 6.70007
1375 1 68.8155 0.659654 7.94448
1376 1 70.8478 2.09657 7.94448
1378 1 72.8802 1.37811 6.70007
1379 1 74.9126 2.81503 6.70007
1380 1 74.9126 0.659654 7.94448
1381 1 76.9449 2.09657 7.94448
1382 1 78.9773 1.37811 6.70007
1383 1 81.0097 2.81503 6.70007
1384 1 81.0097 0.659654 7.94448
1385 1 83.0421 2.09657 7.94448
1386 1 85.0744 1.37811 6.70007
1387 1 87.1068 2.81503 6.70007
1388 1 87.1068 0.659653 7.94448
1389 1 89.1392 2.09657 7.94448
1390 1 91.1715 1.37811 6.70007
1392 1 93.2039 2.81503 6.70007
1393 1 93.2039 0.659653 7.94448
1394 1 95.2363 2.09657 7.94448
1395 1 97.2687 1.37811 6.70007
1397 1 99.301 2.81503 6.70007
1398 1 99.301 0.659653 7.94448
1399 1 101.333 2.09657 7.94448
1400 1 103.366 1.37811 6.70007
1402 1 105.401 2.81503 6.70007
1403 1 105.401 0.659653 7.94448
342 1 15.9683 3.53349 7.94448
343 1 15.9683 5.68887 6.70007
344 1 18.0005 4.25195 6.70007
345 1 18.0005 6.40733 7.94448
346 1 20.0329 4.97041 7.94448
347 1 22.0652 3.53349 7.94448
348 1 22.0652 5.68887 6.70007
349 1 24.0976 4.25195 6.70007
350 1 24.0976 6.40733 7.94448
351 1 26.13 4.97041 7.94448
352 1 28.1624 3.53349 7.94448
353 1 28.1624 5.68887 6.70007
354 1 30.1947 4.25195 6.70007
355 1 30.1947 6.40733 7.94448
356 1 32.2271 4.97041 7.94448
357 1 34.2595 3.53349 7.94448
358 1 34.2595 5.68887 6.70007
359 1 36.2918 4.25195 6.70007
360 1 36.2918 6.40733 7.94448
361 1 38.3242 4.97041 7.94448