ITEM: TIMESTEP
3879
ITEM: NUMBER OF ATOMS
4992
ITEM: BOX BOUNDS pp pp pp
-2.5909719261146014e-01 1.4384748719261151e+02
4.0682619149948864e-03 3.5893028738085036e+01
-1.0826686703104490e-03 1.0561082668670313e+01
ITEM: ATOMS id type x y z
1 1 0.191876 2.3835 2.13688
2 1 1.67889 0.339213 2.13688
3 1 0.191891 0.664567 0.376517
4 1 1.9421 2.21971 0.376517
5 1 3.62222 1.82609 2.13688
6 1 5.34202 1.44016 0.376517
7 1 3.31056 0.0616365 0.376517
8 1 7.05208 1.07461 2.13688
9 1 7.40982 2.80709 0.376517
10 1 9.12519 2.45708 2.13688
11 1 10.5002 0.38516 2.13688
12 1 8.77288 0.727632 0.376517
13 1 10.8471 2.11113 0.376517
14 1 12.5731 1.76679 2.13688
15 1 14.3001 1.42247 0.376517
16 1 12.2287 0.0422014 0.376517
17 1 16.0266 1.07763 2.13688
18 1 16.3714 2.80274 0.376517
19 1 18.0975 2.45775 2.13688
20 1 19.4783 0.387171 2.13688
21 1 17.7526 0.732448 0.376517
22 1 19.8234 2.11259 0.376517
23 1 21.5492 1.76737 2.13688
24 1 21.204 0.0419254 0.376517
25 1 23.275 1.42216 0.376517
26 1 25.0008 1.07697 2.13688
27 1 25.346 2.80239 0.376517
28 1 27.0718 2.4572 2.13688
29 1 28.4525 0.386604 2.13688
30 1 26.7267 0.731783 0.376517
31 1 28.7977 2.11201 0.376517
32 1 30.5235 1.76683 2.13688
33 1 30.1783 0.0414227 0.376517
34 1 33.9752 1.07647 2.13688
35 1 32.2493 1.42165 0.376517
36 1 34.3203 2.80188 0.376517
37 1 36.0461 2.4567 2.13688
38 1 37.4268 0.386102 2.13688
39 1 37.772 2.11151 0.376517
40 1 35.701 0.731285 0.376517
41 1 39.4978 1.76633 2.13688
42 1 39.1526 0.040919 0.376517
43 1 42.9495 1.07596 2.13688
44 1 43.2946 2.80138 0.376517
45 1 41.2236 1.42115 0.376517
46 1 45.0204 2.45619 2.13688
47 1 46.4011 0.385595 2.13688
48 1 44.6753 0.730778 0.376517
49 1 46.7463 2.111 0.376517
50 1 48.4721 1.76582 2.13688
51 1 48.127 0.0404188 0.376517
52 1 51.9238 1.0755 2.13688
53 1 50.198 1.42065 0.376517
54 1 52.269 2.80086 0.376517
55 1 53.9949 2.45577 2.13688
56 1 55.3754 0.38518 2.13688
57 1 53.6497 0.730379 0.376517
58 1 57.4466 1.7656 2.13688
59 1 55.7209 2.11074 0.376517
60 1 57.1008 0.0397469 0.376517
61 1 60.8956 1.07342 2.13688
62 1 59.1715 1.41996 0.376517
63 1 61.2422 2.80018 0.376517
64 1 62.9638 2.45199 2.13688
65 1 62.6208 0.726514 0.376517
66 1 64.3513 0.381593 2.13688
67 1 64.6854 2.10375 0.376517
68 1 66.0916 0.0466161 0.376517
69 1 66.4139 1.76218 2.13688
70 1 68.1755 1.44911 0.376517
71 1 70.0044 1.14867 2.13688
72 1 70.3572 2.71786 0.376517
2497 1 72.2605 0.63582 0.376517
2498 1 72.2448 2.45449 2.13688
2499 1 74.4853 1.14631 2.13688
2500 1 74.1335 2.71676 0.376517
2501 1 76.3148 1.44661 0.376517
2502 1 78.0766 1.75935 2.13688
2503 1 78.3988 0.0438403 0.376517
2504 1 79.8053 2.10064 0.376517
2505 1 80.1392 0.378625 2.13688
2506 1 81.8699 0.723428 0.376517
2507 1 81.5271 2.44884 2.13688
2508 1 83.5952 1.07032 2.13688
2509 1 83.2487 2.79707 0.376517
2510 1 85.3193 1.41688 0.376517
2511 1 87.0442 1.76254 2.13688
2512 1 87.3899 0.0366746 0.376517
2513 1 88.7698 2.10768 0.376517
2514 1 90.4958 2.45271 2.13688
2515 1 89.1153 0.382115 2.13688
2516 1 90.841 0.727317 0.376517
2517 1 92.5669 1.07244 2.13688
2518 1 92.2218 2.7978 0.376517
2519 1 94.2928 1.41758 0.376517
2520 1 96.0186 1.76275 2.13688
2521 1 96.3638 0.0373564 0.376517
2522 1 97.7445 2.10794 0.376517
2523 1 99.4703 2.45313 2.13688
2524 1 98.0896 0.382532 2.13688
2525 1 99.8155 0.727716 0.376517
2526 1 101.541 1.0729 2.13688
2527 1 101.196 2.79831 0.376517
2528 1 103.267 1.41808 0.376517
2529 1 104.993 1.76327 2.13688
2530 1 105.338 0.0378563 0.376517
2531 1 106.719 2.10845 0.376517
2532 1 108.445 2.45363 2.13688
2533 1 107.064 0.383039 2.13688
2534 1 108.79 0.728223 0.376517
2535 1 110.516 1.07341 2.13688
2536 1 110.17 2.79882 0.376517
2537 1 112.241 1.41859 0.376517
2538 1 113.967 1.76377 2.13688
2539 1 114.312 0.0383602 0.376517
2540 1 115.693 2.10895 0.376517
2541 1 116.038 0.383541 2.13688
2542 1 117.419 2.45414 2.13688
2543 1 117.764 0.728721 0.376517
2544 1 119.49 1.0739 2.13688
2545 1 119.145 2.79932 0.376517
2546 1 121.216 1.4191 0.376517
2547 1 122.942 1.76431 2.13688
2548 1 124.667 2.10952 0.376517
2549 1 125.012 0.384106 2.13688
2550 1 123.287 0.0388618 0.376517
2551 1 126.738 0.729383 0.376517
2552 1 128.464 1.07457 2.13688
2553 1 128.119 2.79968 0.376517
2554 1 126.393 2.45469 2.13688
2555 1 130.191 1.41942 0.376517
2556 1 131.918 1.76375 2.13688
2557 1 133.644 2.10808 0.376517
2558 1 133.99 0.382157 2.13688
2559 1 132.262 0.039167 0.376517
2560 1 135.718 0.724621 0.376517
2561 1 137.439 1.07139 2.13688
2562 1 135.366 2.45395 2.13688
2563 1 137.081 2.80381 0.376517
2564 1 139.149 1.43642 0.376517
2565 1 140.869 1.82282 2.13688
2566 1 142.548 2.21805 0.376517
2567 1 142.813 0.335626 2.13688
2568 1 141.182 0.0579869 0.376517
73 1 2.08023 3.91898 2.13688
74 1 0.191531 4.18126 0.376517
75 1 2.43206 5.48943 0.376517
76 1 4.26154 5.18914 2.13688
77 1 3.95627 3.52488 0.376517
78 1 5.69337 3.15974 2.13688
79 1 7.75203 4.53511 2.13688
80 1 6.02328 4.8764 0.376517
81 1 11.1954 3.83867 2.13688
82 1 9.81661 5.91231 2.13688
83 1 9.47377 4.1869 0.376517
84 1 13.266 5.21887 2.13688
85 1 12.9194 3.49254 0.376517
86 1 11.5419 5.56542 0.376517
87 1 14.6451 3.14755 2.13688
88 1 16.7165 4.52806 2.13688
89 1 14.9909 4.87321 0.376517
90 1 20.1685 3.83794 2.13688
91 1 18.7877 5.90842 2.13688
92 1 18.4425 4.18303 0.376517
93 1 22.2395 5.21816 2.13688
94 1 21.8944 3.49278 0.376517
95 1 20.5136 5.5633 0.376517
96 1 23.6202 3.14758 2.13688
97 1 25.6912 4.5278 2.13688
98 1 23.9654 4.87299 0.376517
99 1 27.7622 5.90803 2.13688
100 1 29.1428 3.83743 2.13688
101 1 27.417 4.18261 0.376517
102 1 31.2138 5.21766 2.13688
103 1 30.8687 3.49224 0.376517
104 1 29.488 5.56284 0.376517
105 1 32.5945 3.14706 2.13688
106 1 34.6655 4.52729 2.13688
107 1 32.9397 4.87247 0.376517
108 1 36.7365 5.90752 2.13688
109 1 36.3913 4.18211 0.376517
110 1 38.1171 3.83693 2.13688
111 1 40.1881 5.21715 2.13688
112 1 39.843 3.49174 0.376517
113 1 38.4623 5.56234 0.376517
114 1 41.5688 3.14656 2.13688
115 1 43.6398 4.52679 2.13688
116 1 41.914 4.87197 0.376517
117 1 45.7108 5.90702 2.13688
118 1 45.3656 4.18161 0.376517
119 1 47.0914 3.83642 2.13688
120 1 49.1624 5.21665 2.13688
121 1 48.8173 3.49122 0.376517
122 1 47.4366 5.56184 0.376517
123 1 50.5431 3.14603 2.13688
124 1 52.614 4.52622 2.13688
125 1 50.8882 4.87144 0.376517
126 1 54.6849 5.90636 2.13688
127 1 54.3399 4.18106 0.376517
128 1 56.0661 3.83606 2.13688
129 1 58.1373 5.21632 2.13688
130 1 57.7923 3.49124 0.376517
131 1 56.4109 5.56117 0.376517
132 1 59.5181 3.14626 2.13688
133 1 59.8643 4.87199 0.376517
134 1 61.5903 4.52766 2.13688
135 1 63.6646 5.91112 2.13688
136 1 63.3124 4.18179 0.376517
137 1 65.0279 3.83193 2.13688
138 1 65.3856 5.56435 0.376517
139 1 66.744 3.47932 0.376517
140 1 67.0961 5.19932 2.13688
141 1 68.4798 3.11429 2.13688
142 1 68.816 4.81293 0.376517
143 1 70.4948 4.41769 2.13688
2569 1 72.2452 4.25224 0.376517
2570 1 72.2452 5.97117 2.13688
2571 1 73.9954 4.41603 2.13688
2572 1 76.0096 3.11086 2.13688
2573 1 75.6755 4.80965 0.376517
2574 1 77.3953 5.19558 2.13688
2575 1 77.7467 3.47601 0.376517
2576 1 79.1054 5.56113 0.376517
2577 1 79.4631 3.82865 2.13688
2578 1 81.1785 4.17866 0.376517
2579 1 80.8262 5.90811 2.13688
2580 1 84.6264 4.86896 0.376517
2581 1 82.9004 4.52461 2.13688
2582 1 84.9727 3.1432 2.13688
2583 1 86.6984 3.48819 0.376517
2584 1 86.3534 5.21327 2.13688
2585 1 88.0799 5.55811 0.376517
2586 1 90.1508 4.178 0.376517
2587 1 88.4247 3.833 2.13688
2588 1 89.8059 5.90329 2.13688
2589 1 93.6025 4.86837 0.376517
2590 1 91.8767 4.52315 2.13688
2591 1 93.9477 3.14297 2.13688
2592 1 95.6735 3.48816 0.376517
2593 1 95.3283 5.21358 2.13688
2594 1 97.0541 5.55878 0.376517
2595 1 99.1251 4.17854 0.376517
2596 1 97.3993 3.83336 2.13688
2597 1 98.78 5.90396 2.13688
2598 1 100.851 4.52373 2.13688
2599 1 102.577 4.86891 0.376517
2600 1 102.922 3.1435 2.13688
2601 1 104.648 3.48868 0.376517
2602 1 104.303 5.21409 2.13688
2603 1 106.028 5.55927 0.376517
2604 1 108.099 4.17904 0.376517
2605 1 106.374 3.83386 2.13688
2606 1 107.754 5.90446 2.13688
2607 1 109.825 4.52423 2.13688
2608 1 111.896 3.144 2.13688
2609 1 113.622 3.48918 0.376517
2610 1 111.551 4.86941 0.376517
2611 1 113.277 5.21459 2.13688
2612 1 115.003 5.55978 0.376517
2613 1 117.074 4.17955 0.376517
2614 1 115.348 3.83437 2.13688
2615 1 116.729 5.90496 2.13688
2616 1 118.8 4.52474 2.13688
2617 1 120.871 3.14452 2.13688
2618 1 122.596 3.48971 0.376517
2619 1 120.525 4.86993 0.376517
2620 1 122.251 5.2151 2.13688
2621 1 123.977 5.56024 0.376517
2622 1 126.048 4.17997 0.376517
2623 1 124.322 3.83488 2.13688
2624 1 125.703 5.90536 2.13688
2625 1 127.774 4.525 2.13688
2626 1 129.846 3.1445 2.13688
2627 1 131.571 3.48948 0.376517
2628 1 129.5 4.87014 0.376517
2629 1 131.225 5.21578 2.13688
2630 1 132.949 5.56232 0.376517
2631 1 133.295 3.83557 2.13688
2632 1 134.674 5.90923 2.13688
2633 1 135.017 4.18375 0.376517
2634 1 136.739 4.532 2.13688
2635 1 138.797 3.15642 2.13688
2636 1 138.467 4.87357 0.376517
2637 1 140.229 5.18663 2.13688
2638 1 140.533 3.52145 0.376517
2639 1 142.411 3.91788 2.13688
2640 1 142.058 5.48708 0.376517
144 1 0.207247 5.99992 2.13688
145 1 1.3326 7.54781 0.376517
146 1 2.9205 7.20193 2.13688
147 1 4.97301 8.66559 2.13688
148 1 4.61287 6.91155 0.376517
149 1 6.34548 6.5919 2.13688
150 1 8.4241 7.97579 2.13688
151 1 8.08595 6.25712 0.376517
152 1 6.69077 8.31737 0.376517
153 1 10.1573 7.63454 0.376517
154 1 11.8857 7.29037 2.13688
155 1 13.9559 8.66994 2.13688
156 1 13.6115 6.94481 0.376517
157 1 15.3367 6.59907 2.13688
158 1 17.062 6.25363 0.376517
159 1 15.6819 8.32466 0.376517
160 1 17.4074 7.97923 2.13688
161 1 19.133 7.63392 0.376517
162 1 20.8588 7.28871 2.13688
163 1 22.9298 8.66897 2.13688
164 1 22.5846 6.94355 0.376517
165 1 24.3105 6.59839 2.13688
166 1 26.0363 6.25321 0.376517
167 1 24.6557 8.32379 0.376517
168 1 26.3815 7.97861 2.13688
169 1 28.1073 7.63344 0.376517
170 1 29.8332 7.28825 2.13688
171 1 31.9042 8.66848 2.13688
172 1 31.559 6.94307 0.376517
173 1 33.2848 6.59789 2.13688
174 1 33.63 8.3233 0.376517
175 1 35.0106 6.2527 0.376517
176 1 35.3558 7.97811 2.13688
177 1 37.0816 7.63293 0.376517
178 1 38.8075 7.28775 2.13688
179 1 40.8785 8.66798 2.13688
180 1 40.5333 6.94256 0.376517
181 1 42.2591 6.59738 2.13688
182 1 42.6043 8.32279 0.376517
183 1 44.3301 7.97761 2.13688
184 1 43.985 6.2522 0.376517
185 1 46.056 7.63243 0.376517
186 1 47.7818 7.28725 2.13688
187 1 49.5076 6.94208 0.376517
188 1 51.2334 6.59688 2.13688
189 1 49.8528 8.6675 2.13688
190 1 51.5786 8.32233 0.376517
191 1 53.3044 7.97713 2.13688
192 1 52.9591 6.25164 0.376517
193 1 55.03 7.63182 0.376517
194 1 56.7556 7.28639 2.13688
195 1 58.4816 6.9411 0.376517
196 1 60.2087 6.59657 2.13688
197 1 58.8259 8.66625 2.13688
198 1 60.5517 8.32067 0.376517
199 1 62.2801 7.97646 2.13688
200 1 61.9372 6.25358 0.376517
201 1 64.0132 7.63514 0.376517
202 1 65.7465 7.2935 2.13688
203 1 67.8238 8.69883 2.13688
204 1 67.4652 6.94544 0.376517
205 1 69.1289 6.57775 2.13688
206 1 69.5181 8.4086 0.376517
207 1 71.1099 8.06637 2.13688
208 1 70.7602 6.30012 0.376517
2641 1 73.3859 8.06017 2.13688
2642 1 73.7322 6.29653 0.376517
2643 1 74.9738 8.40605 0.376517
2644 1 75.3638 6.57411 2.13688
2645 1 76.6662 8.69644 2.13688
2646 1 77.0263 6.94239 0.376517
2647 1 78.7441 7.29061 2.13688
2648 1 80.4774 7.63219 0.376517
2649 1 82.5535 6.25058 0.376517
2650 1 84.282 6.59354 2.13688
2651 1 83.939 8.31761 0.376517
2652 1 82.2106 7.97344 2.13688
2653 1 86.0092 6.93804 0.376517
2654 1 87.7351 7.28332 2.13688
2655 1 85.6648 8.66318 2.13688
2656 1 89.4607 7.62875 0.376517
2657 1 91.5316 6.24857 0.376517
2658 1 93.2573 6.59382 2.13688
2659 1 92.9121 8.31927 0.376517
2660 1 91.1863 7.97406 2.13688
2661 1 94.9831 6.93902 0.376517
2662 1 94.6379 8.66443 2.13688
2663 1 96.709 7.28419 2.13688
2664 1 98.4348 7.62937 0.376517
2665 1 100.506 6.24914 0.376517
2666 1 102.232 6.59432 2.13688
2667 1 101.886 8.31973 0.376517
2668 1 100.161 7.97455 2.13688
2669 1 103.957 6.9395 0.376517
2670 1 103.612 8.66491 2.13688
2671 1 105.683 7.28468 2.13688
2672 1 107.409 7.62987 0.376517
2673 1 109.48 6.24964 0.376517
2674 1 111.206 6.59482 2.13688
2675 1 110.861 8.32023 0.376517
2676 1 109.135 7.97505 2.13688
2677 1 112.932 6.94001 0.376517
2678 1 112.587 8.66542 2.13688
2679 1 114.658 7.28519 2.13688
2680 1 116.383 7.63037 0.376517
2681 1 118.454 6.25015 0.376517
2682 1 120.18 6.59532 2.13688
2683 1 119.835 8.32073 0.376517
2684 1 118.109 7.97555 2.13688
2685 1 121.906 6.94049 0.376517
2686 1 121.561 8.6659 2.13688
2687 1 123.632 7.28565 2.13688
2688 1 125.358 7.63085 0.376517
2689 1 127.429 6.25056 0.376517
2690 1 128.809 8.32159 0.376517
2691 1 127.083 7.97617 2.13688
2692 1 129.154 6.59599 2.13688
2693 1 130.879 6.94173 0.376517
2694 1 130.535 8.66688 2.13688
2695 1 132.605 7.28731 2.13688
2696 1 134.333 7.63152 0.376517
2697 1 136.405 6.25415 0.376517
2698 1 137.8 8.31448 0.376517
2699 1 136.066 7.97284 2.13688
2700 1 138.145 6.58913 2.13688
2701 1 139.877 6.90915 0.376517
2702 1 139.518 8.66255 2.13688
2703 1 141.571 7.19938 2.13688
2704 1 143.163 7.54161 0.376517
209 1 1.67889 9.31145 2.13688
210 1 0.191876 11.3557 2.13688
211 1 0.191891 9.63681 0.376517
212 1 1.9421 11.192 0.376517
213 1 3.62222 10.7983 2.13688
214 1 3.31056 9.03388 0.376517
215 1 5.34202 10.4124 0.376517
216 1 7.05208 10.0468 2.13688
217 1 7.40982 11.7793 0.376517
218 1 10.5002 9.3574 2.13688
219 1 9.12519 11.4293 2.13688
220 1 8.77288 9.69987 0.376517
221 1 10.8471 11.0834 0.376517
222 1 12.5731 10.739 2.13688
223 1 12.2287 9.01444 0.376517
224 1 14.3001 10.3947 0.376517
225 1 16.0266 10.0499 2.13688
226 1 16.3714 11.775 0.376517
227 1 19.4783 9.35941 2.13688
228 1 18.0975 11.43 2.13688
229 1 17.7526 9.70469 0.376517
230 1 19.8234 11.0848 0.376517
231 1 21.5492 10.7396 2.13688
232 1 21.204 9.01417 0.376517
233 1 23.275 10.3944 0.376517
234 1 25.0008 10.0492 2.13688
235 1 25.346 11.7746 0.376517
236 1 28.4525 9.35884 2.13688
237 1 27.0718 11.4294 2.13688
238 1 26.7267 9.70402 0.376517
239 1 28.7977 11.0843 0.376517
240 1 30.5235 10.7391 2.13688
241 1 30.1783 9.01366 0.376517
242 1 33.9752 10.0487 2.13688
243 1 32.2493 10.3939 0.376517
244 1 34.3203 11.7741 0.376517
245 1 37.4268 9.35834 2.13688
246 1 36.0461 11.4289 2.13688
247 1 37.772 11.0838 0.376517
248 1 35.701 9.70353 0.376517
249 1 39.4978 10.7386 2.13688
250 1 39.1526 9.01316 0.376517
251 1 42.9495 10.0482 2.13688
252 1 41.2236 10.3934 0.376517
253 1 43.2946 11.7736 0.376517
254 1 46.4011 9.35783 2.13688
255 1 45.0204 11.4284 2.13688
256 1 44.6753 9.70302 0.376517
257 1 46.7463 11.0832 0.376517
258 1 48.4721 10.7381 2.13688
259 1 48.127 9.01266 0.376517
260 1 51.9238 10.0477 2.13688
261 1 50.198 10.3929 0.376517
262 1 52.269 11.7731 0.376517
263 1 55.3754 9.35742 2.13688
264 1 53.9949 11.428 2.13688
265 1 53.6497 9.70262 0.376517
266 1 57.4466 10.7378 2.13688
267 1 57.1008 9.01199 0.376517
268 1 55.7209 11.083 0.376517
269 1 60.8956 10.0457 2.13688
270 1 59.1715 10.3922 0.376517
271 1 61.2422 11.7724 0.376517
272 1 62.9638 11.4242 2.13688
273 1 62.6208 9.69875 0.376517
274 1 64.3513 9.35383 2.13688
275 1 66.0916 9.01886 0.376517
276 1 64.6854 11.076 0.376517
277 1 66.4139 10.7344 2.13688
278 1 68.1755 10.4214 0.376517
279 1 70.0044 10.1209 2.13688
280 1 70.3572 11.6901 0.376517
2705 1 72.2605 9.60806 0.376517
2706 1 72.2448 11.4267 2.13688
2707 1 74.4853 10.1185 2.13688
2708 1 74.1335 11.689 0.376517
2709 1 76.3148 10.4188 0.376517
2710 1 78.3988 9.01608 0.376517
2711 1 78.0766 10.7316 2.13688
2712 1 80.1392 9.35086 2.13688
2713 1 79.8053 11.0729 0.376517
2714 1 81.8699 9.69567 0.376517
2715 1 81.5271 11.4211 2.13688
2716 1 83.5952 10.0426 2.13688
2717 1 83.2487 11.7693 0.376517
2718 1 87.3899 9.00891 0.376517
2719 1 85.3193 10.3891 0.376517
2720 1 87.0442 10.7348 2.13688
2721 1 89.1153 9.35436 2.13688
2722 1 88.7698 11.0799 0.376517
2723 1 90.4958 11.425 2.13688
2724 1 90.841 9.69956 0.376517
2725 1 92.5669 10.0447 2.13688
2726 1 92.2218 11.77 0.376517
2727 1 96.3638 9.0096 0.376517
2728 1 94.2928 10.3898 0.376517
2729 1 96.0186 10.735 2.13688
2730 1 98.0896 9.35477 2.13688
2731 1 97.7445 11.0802 0.376517
2732 1 99.4703 11.4254 2.13688
2733 1 99.8155 9.69996 0.376517
2734 1 101.541 10.0451 2.13688
2735 1 101.196 11.7706 0.376517
2736 1 105.338 9.0101 0.376517
2737 1 103.267 10.3903 0.376517
2738 1 104.993 10.7355 2.13688
2739 1 107.064 9.35528 2.13688
2740 1 106.719 11.0807 0.376517
2741 1 108.445 11.4259 2.13688
2742 1 108.79 9.70046 0.376517
2743 1 110.516 10.0456 2.13688
2744 1 110.17 11.7711 0.376517
2745 1 114.312 9.0106 0.376517
2746 1 112.241 10.3908 0.376517
2747 1 113.967 10.736 2.13688
2748 1 116.038 9.35578 2.13688
2749 1 115.693 11.0812 0.376517
2750 1 117.419 11.4264 2.13688
2751 1 117.764 9.70096 0.376517
2752 1 119.49 10.0461 2.13688
2753 1 119.145 11.7716 0.376517
2754 1 121.216 10.3913 0.376517
2755 1 122.942 10.7365 2.13688
2756 1 123.287 9.0111 0.376517
2757 1 125.012 9.35635 2.13688
2758 1 124.667 11.0818 0.376517
2759 1 126.738 9.70162 0.376517
2760 1 128.464 10.0468 2.13688
2761 1 126.393 11.4269 2.13688
2762 1 128.119 11.7719 0.376517
2763 1 130.191 10.3917 0.376517
2764 1 131.918 10.736 2.13688
2765 1 132.262 9.01141 0.376517
2766 1 133.99 9.3544 2.13688
2767 1 133.644 11.0803 0.376517
2768 1 135.718 9.69686 0.376517
2769 1 137.439 10.0436 2.13688
2770 1 137.081 11.7761 0.376517
2771 1 135.366 11.4262 2.13688
2772 1 139.149 10.4087 0.376517
2773 1 140.869 10.7951 2.13688
2774 1 141.182 9.03023 0.376517
2775 1 142.813 9.30787 2.13688
2776 1 142.548 11.1903 0.376517
281 1 2.08023 12.8912 2.13688
282 1 0.191531 13.1535 0.376517
283 1 2.43206 14.4617 0.376517
284 1 4.26154 14.1614 2.13688
285 1 3.95627 12.4971 0.376517
286 1 5.69337 12.132 2.13688
287 1 7.75203 13.5073 2.13688
288 1 6.02328 13.8486 0.376517
289 1 11.1954 12.8109 2.13688
290 1 9.81661 14.8846 2.13688
291 1 9.47377 13.1591 0.376517
292 1 13.266 14.1911 2.13688
293 1 12.9194 12.4648 0.376517
294 1 11.5419 14.5377 0.376517
295 1 14.6451 12.1198 2.13688
296 1 16.7165 13.5003 2.13688
297 1 14.9909 13.8454 0.376517
298 1 20.1685 12.8102 2.13688
299 1 18.7877 14.8807 2.13688
300 1 18.4425 13.1553 0.376517
301 1 22.2395 14.1904 2.13688
302 1 21.8944 12.465 0.376517
303 1 20.5136 14.5355 0.376517
304 1 23.6202 12.1198 2.13688
305 1 25.6912 13.5 2.13688
306 1 23.9654 13.8452 0.376517
307 1 27.7622 14.8803 2.13688
308 1 29.1428 12.8097 2.13688
309 1 27.417 13.1549 0.376517
310 1 31.2138 14.1899 2.13688
311 1 30.8687 12.4645 0.376517
312 1 29.488 14.5351 0.376517
313 1 32.5945 12.1193 2.13688
314 1 34.6655 13.4995 2.13688
315 1 32.9397 13.8447 0.376517
316 1 36.7365 14.8798 2.13688
317 1 36.3913 13.1543 0.376517
318 1 38.1171 12.8092 2.13688
319 1 40.1881 14.1894 2.13688
320 1 39.843 12.464 0.376517
321 1 38.4623 14.5346 0.376517
322 1 41.5688 12.1188 2.13688
323 1 43.6398 13.499 2.13688
324 1 41.914 13.8442 0.376517
325 1 45.7108 14.8793 2.13688
326 1 45.3656 13.1538 0.376517
327 1 47.0914 12.8087 2.13688
328 1 49.1624 14.1889 2.13688
329 1 48.8173 12.4635 0.376517
330 1 47.4366 14.5341 0.376517
331 1 50.5431 12.1183 2.13688
332 1 52.614 13.4985 2.13688
333 1 50.8882 13.8437 0.376517
334 1 54.6849 14.8786 2.13688
335 1 54.3399 13.1533 0.376517
336 1 56.0661 12.8083 2.13688
337 1 58.1373 14.1886 2.13688
338 1 57.7923 12.4635 0.376517
339 1 56.4109 14.5334 0.376517
340 1 59.5181 12.1185 2.13688
341 1 59.8643 13.8442 0.376517
342 1 61.5903 13.4999 2.13688
343 1 63.6646 14.8834 2.13688
344 1 63.3124 13.154 0.376517
345 1 65.0279 12.8042 2.13688
346 1 65.3856 14.5366 0.376517
347 1 66.744 12.4516 0.376517
348 1 67.0961 14.1716 2.13688
349 1 68.4798 12.0865 2.13688
350 1 68.816 13.7852 0.376517
351 1 70.4948 13.3899 2.13688
2777 1 72.2452 13.2245 0.376517
2778 1 72.2452 14.9434 2.13688
2779 1 73.9954 13.3883 2.13688
2780 1 76.0096 12.0831 2.13688
2781 1 75.6755 13.7819 0.376517
2782 1 77.3953 14.1678 2.13688
2783 1 77.7467 12.4482 0.376517
2784 1 79.1054 14.5334 0.376517
2785 1 79.4631 12.8009 2.13688
2786 1 81.1785 13.1509 0.376517
2787 1 80.8262 14.8804 2.13688
2788 1 82.9004 13.4969 2.13688
2789 1 84.6264 13.8412 0.376517
2790 1 84.9727 12.1154 2.13688
2791 1 86.6984 12.4604 0.376517
2792 1 86.3534 14.1855 2.13688
2793 1 88.4247 12.8052 2.13688
2794 1 90.1508 13.1502 0.376517
2795 1 88.0799 14.5304 0.376517
2796 1 89.8059 14.8755 2.13688
2797 1 93.6025 13.8406 0.376517
2798 1 91.8767 13.4954 2.13688
2799 1 93.9477 12.1152 2.13688
2800 1 95.6735 12.4604 0.376517
2801 1 95.3283 14.1858 2.13688
2802 1 97.3993 12.8056 2.13688
2803 1 99.1251 13.1508 0.376517
2804 1 97.0541 14.531 0.376517
2805 1 98.78 14.8762 2.13688
2806 1 100.851 13.496 2.13688
2807 1 102.577 13.8411 0.376517
2808 1 102.922 12.1157 2.13688
2809 1 104.648 12.4609 0.376517
2810 1 104.303 14.1863 2.13688
2811 1 106.374 12.8061 2.13688
2812 1 108.099 13.1513 0.376517
2813 1 106.028 14.5315 0.376517
2814 1 107.754 14.8767 2.13688
2815 1 109.825 13.4965 2.13688
2816 1 111.896 12.1162 2.13688
2817 1 113.622 12.4614 0.376517
2818 1 111.551 13.8417 0.376517
2819 1 113.277 14.1868 2.13688
2820 1 115.348 12.8066 2.13688
2821 1 117.074 13.1518 0.376517
2822 1 115.003 14.532 0.376517
2823 1 116.729 14.8772 2.13688
2824 1 118.8 13.497 2.13688
2825 1 120.871 12.1168 2.13688
2826 1 122.596 12.462 0.376517
2827 1 120.525 13.8422 0.376517
2828 1 122.251 14.1873 2.13688
2829 1 124.322 12.8071 2.13688
2830 1 126.048 13.1522 0.376517
2831 1 123.977 14.5325 0.376517
2832 1 125.703 14.8776 2.13688
2833 1 127.774 13.4972 2.13688
2834 1 129.846 12.1167 2.13688
2835 1 131.571 12.4617 0.376517
2836 1 129.5 13.8424 0.376517
2837 1 131.225 14.188 2.13688
2838 1 133.295 12.8078 2.13688
2839 1 132.949 14.5346 0.376517
2840 1 134.674 14.8815 2.13688
2841 1 135.017 13.156 0.376517
2842 1 136.739 13.5042 2.13688
2843 1 138.797 12.1287 2.13688
2844 1 138.467 13.8458 0.376517
2845 1 140.229 14.1589 2.13688
2846 1 140.533 12.4937 0.376517
2847 1 142.411 12.8901 2.13688
2848 1 142.058 14.4593 0.376517
352 1 0.207247 14.9722 2.13688
353 1 1.3326 16.5201 0.376517
354 1 2.9205 16.1742 2.13688
355 1 4.97301 17.6378 2.13688
356 1 4.61287 15.8838 0.376517
357 1 6.34548 15.5641 2.13688
358 1 8.4241 16.948 2.13688
359 1 8.08595 15.2294 0.376517
360 1 6.69077 17.2896 0.376517
361 1 10.1573 16.6068 0.376517
362 1 11.8857 16.2626 2.13688
363 1 13.9559 17.6422 2.13688
364 1 13.6115 15.917 0.376517
365 1 15.3367 15.5713 2.13688
366 1 17.062 15.2259 0.376517
367 1 15.6819 17.2969 0.376517
368 1 17.4074 16.9515 2.13688
369 1 19.133 16.6062 0.376517
370 1 20.8588 16.261 2.13688
371 1 22.9298 17.6412 2.13688
372 1 22.5846 15.9158 0.376517
373 1 24.3105 15.5706 2.13688
374 1 26.0363 15.2254 0.376517
375 1 24.6557 17.296 0.376517
376 1 26.3815 16.9509 2.13688
377 1 28.1073 16.6057 0.376517
378 1 29.8332 16.2605 2.13688
379 1 31.9042 17.6407 2.13688
380 1 31.559 15.9153 0.376517
381 1 33.2848 15.5701 2.13688
382 1 33.63 17.2955 0.376517
383 1 35.0106 15.2249 0.376517
384 1 35.3558 16.9504 2.13688
385 1 37.0816 16.6052 0.376517
386 1 38.8075 16.26 2.13688
387 1 40.8785 17.6402 2.13688
388 1 40.5333 15.9148 0.376517
389 1 42.2591 15.5696 2.13688
390 1 42.6043 17.295 0.376517
391 1 44.3301 16.9498 2.13688
392 1 43.985 15.2244 0.376517
393 1 46.056 16.6047 0.376517
394 1 47.7818 16.2595 2.13688
395 1 49.5076 15.9143 0.376517
396 1 51.2334 15.5691 2.13688
397 1 49.8528 17.6397 2.13688
398 1 51.5786 17.2946 0.376517
399 1 53.3044 16.9494 2.13688
400 1 52.9591 15.2239 0.376517
401 1 55.03 16.6041 0.376517
402 1 56.7556 16.2586 2.13688
403 1 58.4816 15.9133 0.376517
404 1 60.2087 15.5688 2.13688
405 1 58.8259 17.6385 2.13688
406 1 60.5517 17.2929 0.376517
407 1 62.2801 16.9487 2.13688
408 1 61.9372 15.2258 0.376517
409 1 64.0132 16.6074 0.376517
410 1 65.7465 16.2657 2.13688
411 1 67.8238 17.6711 2.13688
412 1 67.4652 15.9177 0.376517
413 1 69.1289 15.55 2.13688
414 1 69.5181 17.3808 0.376517
415 1 71.1099 17.0386 2.13688
416 1 70.7602 15.2724 0.376517
2849 1 73.3859 17.0324 2.13688
2850 1 73.7322 15.2688 0.376517
2851 1 74.9738 17.3783 0.376517
2852 1 75.3638 15.5463 2.13688
2853 1 76.6662 17.6687 2.13688
2854 1 77.0263 15.9146 0.376517
2855 1 78.7441 16.2629 2.13688
2856 1 80.4774 16.6044 0.376517
2857 1 82.5535 15.2228 0.376517
2858 1 84.282 15.5658 2.13688
2859 1 83.939 17.2898 0.376517
2860 1 82.2106 16.9457 2.13688
2861 1 86.0092 15.9103 0.376517
2862 1 87.7351 16.2556 2.13688
2863 1 85.6648 17.6354 2.13688
2864 1 89.4607 16.601 0.376517
2865 1 91.5316 15.2208 0.376517
2866 1 93.2573 15.5661 2.13688
2867 1 92.9121 17.2915 0.376517
2868 1 91.1863 16.9463 2.13688
2869 1 94.9831 15.9113 0.376517
2870 1 94.6379 17.6367 2.13688
2871 1 96.709 16.2564 2.13688
2872 1 98.4348 16.6016 0.376517
2873 1 100.506 15.2214 0.376517
2874 1 102.232 15.5666 2.13688
2875 1 101.886 17.292 0.376517
2876 1 100.161 16.9468 2.13688
2877 1 103.957 15.9117 0.376517
2878 1 103.612 17.6372 2.13688
2879 1 105.683 16.2569 2.13688
2880 1 107.409 16.6021 0.376517
2881 1 109.48 15.2219 0.376517
2882 1 111.206 15.5671 2.13688
2883 1 110.861 17.2925 0.376517
2884 1 109.135 16.9473 2.13688
2885 1 112.932 15.9122 0.376517
2886 1 112.587 17.6377 2.13688
2887 1 114.658 16.2574 2.13688
2888 1 116.383 16.6026 0.376517
2889 1 118.454 15.2224 0.376517
2890 1 120.18 15.5676 2.13688
2891 1 119.835 17.293 0.376517
2892 1 118.109 16.9478 2.13688
2893 1 121.906 15.9127 0.376517
2894 1 121.561 17.6381 2.13688
2895 1 123.632 16.2579 2.13688
2896 1 125.358 16.6031 0.376517
2897 1 127.429 15.2228 0.376517
2898 1 128.809 17.2938 0.376517
2899 1 127.083 16.9484 2.13688
2900 1 129.154 15.5682 2.13688
2901 1 130.879 15.914 0.376517
2902 1 130.535 17.6391 2.13688
2903 1 132.605 16.2596 2.13688
2904 1 134.333 16.6038 0.376517
2905 1 136.405 15.2264 0.376517
2906 1 136.066 16.9451 2.13688
2907 1 137.8 17.2867 0.376517
2908 1 139.877 15.8814 0.376517
2909 1 138.145 15.5614 2.13688
2910 1 139.518 17.6348 2.13688
2911 1 141.571 16.1716 2.13688
2912 1 143.163 16.5138 0.376517
417 1 1.67889 18.2837 2.13688
418 1 0.191876 20.328 2.13688
419 1 0.191891 18.609 0.376517
420 1 1.9421 20.1642 0.376517
421 1 3.62222 19.7706 2.13688
422 1 3.31056 18.0061 0.376517
423 1 5.34202 19.3846 0.376517
424 1 7.05208 19.0191 2.13688
425 1 7.40982 20.7516 0.376517
426 1 10.5002 18.3296 2.13688
427 1 9.12519 20.4016 2.13688
428 1 8.77288 18.6721 0.376517
429 1 10.8471 20.0556 0.376517
430 1 12.5731 19.7113 2.13688
431 1 12.2287 17.9867 0.376517
432 1 14.3001 19.3669 0.376517
433 1 16.0266 19.0221 2.13688
434 1 16.3714 20.7472 0.376517
435 1 19.4783 18.3317 2.13688
436 1 18.0975 20.4022 2.13688
437 1 17.7526 18.6769 0.376517
438 1 19.8234 20.0571 0.376517
439 1 21.5492 19.7119 2.13688
440 1 21.204 17.9864 0.376517
441 1 23.275 19.3666 0.376517
442 1 25.0008 19.0214 2.13688
443 1 25.346 20.7469 0.376517
444 1 28.4525 18.3311 2.13688
445 1 27.0718 20.4017 2.13688
446 1 28.7977 20.0565 0.376517
447 1 26.7267 18.6763 0.376517
448 1 30.5235 19.7113 2.13688
449 1 30.1783 17.9859 0.376517
450 1 33.9752 19.0209 2.13688
451 1 32.2493 19.3661 0.376517
452 1 34.3203 20.7464 0.376517
453 1 37.4268 18.3306 2.13688
454 1 36.0461 20.4012 2.13688
455 1 35.701 18.6758 0.376517
456 1 37.772 20.056 0.376517
457 1 39.4978 19.7108 2.13688
458 1 39.1526 17.9854 0.376517
459 1 42.9495 19.0204 2.13688
460 1 41.2236 19.3656 0.376517
461 1 43.2946 20.7459 0.376517
462 1 46.4011 18.3301 2.13688
463 1 45.0204 20.4007 2.13688
464 1 44.6753 18.6753 0.376517
465 1 46.7463 20.0555 0.376517
466 1 48.4721 19.7103 2.13688
467 1 48.127 17.9849 0.376517
468 1 51.9238 19.02 2.13688
469 1 52.269 20.7453 0.376517
470 1 50.198 19.3651 0.376517
471 1 55.3754 18.3297 2.13688
472 1 53.9949 20.4003 2.13688
473 1 53.6497 18.6749 0.376517
474 1 57.4466 19.7101 2.13688
475 1 57.1008 17.9842 0.376517
476 1 55.7209 20.0552 0.376517
477 1 60.8956 19.0179 2.13688
478 1 59.1715 19.3644 0.376517
479 1 61.2422 20.7447 0.376517
480 1 62.9638 20.3965 2.13688
481 1 62.6208 18.671 0.376517
482 1 64.3513 18.3261 2.13688
483 1 66.0916 17.9911 0.376517
484 1 64.6854 20.0482 0.376517
485 1 66.4139 19.7067 2.13688
486 1 68.1755 19.3936 0.376517
487 1 70.0044 19.0931 2.13688
488 1 70.3572 20.6623 0.376517
2913 1 72.2605 18.5803 0.376517
2914 1 72.2448 20.399 2.13688
2915 1 74.4853 19.0908 2.13688
2916 1 74.1335 20.6612 0.376517
2917 1 76.3148 19.3911 0.376517
2918 1 78.3988 17.9883 0.376517
2919 1 78.0766 19.7038 2.13688
2920 1 80.1392 18.3231 2.13688
2921 1 79.8053 20.0451 0.376517
2922 1 81.8699 18.6679 0.376517
2923 1 81.5271 20.3933 2.13688
2924 1 83.5952 19.0148 2.13688
2925 1 83.2487 20.7416 0.376517
2926 1 87.3899 17.9812 0.376517
2927 1 85.3193 19.3614 0.376517
2928 1 87.0442 19.707 2.13688
2929 1 89.1153 18.3266 2.13688
2930 1 88.7698 20.0522 0.376517
2931 1 90.4958 20.3972 2.13688
2932 1 90.841 18.6718 0.376517
2933 1 92.5669 19.0169 2.13688
2934 1 92.2218 20.7423 0.376517
2935 1 96.3638 17.9818 0.376517
2936 1 94.2928 19.3621 0.376517
2937 1 96.0186 19.7072 2.13688
2938 1 98.0896 18.327 2.13688
2939 1 97.7445 20.0524 0.376517
2940 1 99.4703 20.3976 2.13688
2941 1 99.8155 18.6722 0.376517
2942 1 101.541 19.0174 2.13688
2943 1 101.196 20.7428 0.376517
2944 1 105.338 17.9823 0.376517
2945 1 103.267 19.3626 0.376517
2946 1 104.993 19.7077 2.13688
2947 1 107.064 18.3275 2.13688
2948 1 106.719 20.0529 0.376517
2949 1 108.445 20.3981 2.13688
2950 1 108.79 18.6727 0.376517
2951 1 110.516 19.0179 2.13688
2952 1 110.17 20.7433 0.376517
2953 1 114.312 17.9828 0.376517
2954 1 112.241 19.3631 0.376517
2955 1 113.967 19.7083 2.13688
2956 1 116.038 18.328 2.13688
2957 1 115.693 20.0534 0.376517
2958 1 117.419 20.3986 2.13688
2959 1 117.764 18.6732 0.376517
2960 1 119.49 19.0184 2.13688
2961 1 119.145 20.7438 0.376517
2962 1 121.216 19.3636 0.376517
2963 1 122.942 19.7088 2.13688
2964 1 123.287 17.9833 0.376517
2965 1 125.012 18.3286 2.13688
2966 1 124.667 20.054 0.376517
2967 1 126.738 18.6739 0.376517
2968 1 128.464 19.0191 2.13688
2969 1 128.119 20.7442 0.376517
2970 1 126.393 20.3992 2.13688
2971 1 130.191 19.3639 0.376517
2972 1 131.918 19.7082 2.13688
2973 1 132.262 17.9836 0.376517
2974 1 133.99 18.3266 2.13688
2975 1 133.644 20.0526 0.376517