ITEM: TIMESTEP
5283
ITEM: NUMBER OF ATOMS
11958
ITEM: BOX BOUNDS pp pp pp
4.3583642087053204e-02 1.2139726835791292e+02
-7.3073910894298280e-02 1.2151392591089423e+02
2.6743042170080337e-02 1.6266256957829913e+01
ITEM: ATOMS id type x y z
1 1 0.281259 1.24718 0.524205
2 1 4.21224 1.60549 0.952198
3 1 8.46588 0.937081 2.27965
4 1 12.1232 2.18332 2.266
5 1 12.7143 0.362643 0.906326
6 1 16.3621 1.61747 0.907264
7 1 20.6059 1.05646 2.27054
8 1 24.2517 2.31469 2.27386
9 1 24.8526 0.495085 0.916321
10 1 28.4992 1.75351 0.919959
11 1 29.1019 -0.0638394 2.28071
12 1 32.7489 1.19489 2.28459
13 1 36.9963 0.635054 0.930644
14 1 40.6433 1.89519 0.935833
15 1 41.2423 0.0769061 2.29664
16 1 44.8885 1.3385 2.30567
17 1 49.1237 0.776991 0.96303
18 1 52.7747 2.0309 0.985973
19 1 53.3668 0.219798 2.3613
20 1 57.067 1.45497 2.42078
21 1 62.4316 1.9047 1.98119
22 1 61.5352 0.0122873 0.931925
23 1 66.6311 1.39641 0.696002
24 1 70.8003 0.824286 2.04941
25 1 75.0299 0.26695 0.718453
26 1 76.111 1.86368 2.07019
27 1 80.362 1.2963 0.726694
28 1 84.6146 0.726517 2.07715
29 1 85.7053 2.31916 0.732378
30 1 88.8687 0.158833 0.732209
31 1 89.9588 1.74968 2.08141
8901 1 94.2127 1.18299 0.73685
8902 1 98.4633 0.615923 2.08379
8903 1 99.557 2.20911 0.74214
8904 1 103.805 1.6437 2.08748
8905 1 102.714 0.0516474 0.739156
8906 1 108.052 1.08081 0.741897
8907 1 112.282 0.517106 2.06816
8908 1 113.381 2.11277 0.737407
8909 1 116.491 -0.0724609 0.660481
8910 1 117.554 1.51723 1.98585
32 1 0.526797 3.22037 1.73472
33 1 3.7304 3.44798 2.35073
34 1 7.33669 4.60033 2.2653
35 1 7.9046 2.76416 0.92227
36 1 11.5402 4.00654 0.905676
37 1 15.7668 3.43958 2.26351
38 1 19.407 4.6968 2.26591
39 1 20.0061 2.8752 0.910176
40 1 23.6496 4.13287 0.913707
41 1 27.8974 3.57269 2.27766
42 1 32.1461 3.01203 0.923676
43 1 36.3965 2.4542 2.28912
44 1 35.7942 4.27089 0.927545
45 1 40.0456 3.71448 2.29463
46 1 44.2922 3.15617 0.9427
47 1 48.5375 2.60086 2.31886
48 1 47.9437 4.41691 0.951402
49 1 52.1913 3.85953 2.33479
50 1 56.4233 3.25792 1.04328
51 1 60.0665 4.50158 1.06785
52 1 63.4759 3.51778 0.669678
53 1 67.6662 3.01129 2.06119
54 1 68.7264 4.62062 0.725811
55 1 71.8773 2.43559 0.717681
56 1 72.9464 4.03527 2.0754
57 1 77.1969 3.46027 0.726657
58 1 81.4497 2.8878 2.0775
59 1 82.5407 4.48013 0.732602
60 1 86.7958 3.90943 2.08202
8911 1 91.0513 3.3418 0.737466
8912 1 95.304 2.77375 2.08553
8913 1 96.398 4.36609 0.743121
8914 1 100.649 3.79991 2.0905
8915 1 104.901 3.23783 0.749246
8916 1 109.141 2.67361 2.09121
8917 1 110.244 4.2695 0.762719
8918 1 114.466 3.70348 2.09743
8919 1 118.682 3.07066 0.640608
8920 1 119.769 4.15136 2.42969
61 1 2.41089 7.10881 2.23649
62 1 3.20921 5.28144 1.01422
63 1 6.74992 6.42304 0.901543
64 1 10.9519 5.83609 2.25257
65 1 14.5728 7.08713 2.25504
66 1 15.1717 5.26142 0.905024
67 1 18.8059 6.51705 0.907624
68 1 23.048 5.95342 2.26985
69 1 26.6906 7.20973 2.27415
70 1 27.2939 5.39022 0.917386
71 1 31.5439 4.83069 2.28175
72 1 30.9394 6.64746 0.921043
73 1 35.1918 6.08894 2.28613
74 1 39.4444 5.53035 0.93157
75 1 43.0984 6.7906 0.935365
76 1 43.6973 4.97599 2.30124
77 1 47.3527 6.23867 2.30786
78 1 51.5963 5.67409 0.960776
79 1 55.2398 6.9265 0.95025
80 1 55.8443 5.11597 2.34943
81 1 59.4075 6.43623 2.19808
82 1 64.4309 5.15827 2.11489
83 1 65.5548 6.76383 0.823037
84 1 69.7679 6.22227 2.09974
85 1 74.0296 5.63025 0.7298
86 1 75.114 7.2191 2.08549
87 1 78.2833 5.05131 2.07936
88 1 79.375 6.64251 0.733783
89 1 83.6317 6.06983 2.08276
90 1 87.8888 5.50095 0.737685
91 1 88.9814 7.09037 2.08672
8921 1 92.1433 4.93182 2.08635
8922 1 93.2376 6.52337 0.743181
8923 1 97.4914 5.95592 2.09155
8924 1 101.746 5.39275 0.750658
8925 1 102.842 6.98174 2.09885
8926 1 105.995 4.8282 2.09777
8927 1 107.097 6.42117 0.762884
8928 1 111.347 5.85461 2.11451
8929 1 115.6 5.30806 0.81988
8930 1 116.783 6.82498 2.1975
8931 1 120.915 6.22471 1.5579
92 1 1.54743 8.54708 0.516641
93 1 6.11098 8.23603 2.23103
94 1 9.72039 9.47987 2.23965
95 1 10.348 7.65928 0.899076
96 1 13.9643 8.90817 0.900043
97 1 18.2027 8.3399 2.26022
98 1 21.8388 9.59313 2.26573
99 1 22.4439 7.7723 0.911205
100 1 26.0848 9.02749 0.914987
101 1 30.3349 8.46601 2.2784
102 1 34.5866 7.90473 0.924572
103 1 38.236 9.16202 0.927765
104 1 38.842 7.34761 2.29073
105 1 42.4958 8.6067 2.29519
106 1 46.7593 8.05202 0.937271
107 1 50.4335 9.31725 0.931204
108 1 51.01 7.5028 2.30916
109 1 54.6533 8.77311 2.27436
110 1 58.7855 8.24599 0.85726
111 1 62.2897 8.77674 1.04556
112 1 66.5441 8.41059 2.1681
113 1 71.9379 9.38942 2.09762
114 1 70.8508 7.80583 0.742774
115 1 76.2072 8.80677 0.73706
116 1 80.4665 8.23139 2.0844
117 1 84.7254 7.66061 0.738007
118 1 85.8188 9.2495 2.0871
119 1 90.0763 8.68123 0.742963
8932 1 94.3316 8.11253 2.09168
8933 1 98.5877 7.54757 0.750126
8934 1 99.6838 9.13575 2.09849
8935 1 103.942 8.57278 0.760159
8936 1 108.201 8.00611 2.11114
8937 1 109.312 9.5923 0.77484
8938 1 113.603 9.00243 2.13939
8939 1 112.465 7.44292 0.78859
8940 1 117.914 8.38574 0.868556
120 1 1.07468 10.166 2.33208
121 1 4.77 11.7799 2.21473
122 1 5.41816 9.997 0.858606
123 1 9.07462 11.2793 0.874496
124 1 13.3461 10.729 2.248
125 1 16.9798 11.9791 2.25614
126 1 17.5931 10.1592 0.903879
127 1 21.2293 11.4113 0.908246
128 1 25.4787 10.847 2.27079
129 1 29.728 10.2828 0.918654
130 1 33.3729 11.5382 0.922028
131 1 33.9809 9.72232 2.28244
132 1 37.6287 10.9785 2.28609
133 1 41.8887 10.4191 0.930079
134 1 45.5457 11.6756 0.930282
135 1 46.1551 9.86604 2.29813
136 1 49.8228 11.1254 2.29634
137 1 54.1377 10.6028 0.905148
138 1 58.1894 11.9768 0.580046
139 1 58.3314 10.1489 2.24804
140 1 63.2845 10.6216 2.11047
141 1 67.6293 9.96648 0.760461
142 1 68.752 11.5442 2.0934
143 1 73.0337 10.9701 0.741319
144 1 77.3001 10.3943 2.08733
145 1 78.3958 11.982 0.739982
146 1 81.5612 9.821 0.73883
147 1 82.6556 11.4093 2.08775
148 1 86.9143 10.8397 0.742834
8941 1 91.1707 10.27 2.0914
8942 1 92.2668 11.8603 0.74803
8943 1 95.4277 9.70336 0.749065
8944 1 96.5236 11.2913 2.09744
8945 1 100.783 10.7257 0.757288
8946 1 105.044 10.1577 2.10904
8947 1 106.149 11.7446 0.769325
8948 1 110.425 11.1662 2.12807
8949 1 114.715 10.5663 0.776914
8950 1 119.094 9.94084 2.19562
8951 1 120.027 10.9964 0.251946
149 1 0.584817 12.1032 1.00955
150 1 4.15214 13.5521 0.800923
151 1 8.44372 13.084 2.23169
152 1 12.0959 14.3531 2.24561
153 1 12.7183 12.5403 0.889253
154 1 16.3608 13.7937 0.898019
155 1 20.6187 13.2302 2.26291
156 1 24.2603 14.4826 2.26849
157 1 24.8695 12.6643 0.912509
158 1 29.1211 12.1013 2.27523
159 1 28.5118 13.9181 0.916403
160 1 32.7649 13.3559 2.27901
161 1 37.0192 12.7932 0.924914
162 1 40.6668 14.0475 0.926987
163 1 41.2786 12.2341 2.28884
164 1 44.9307 13.4884 2.28975
165 1 49.2082 12.9316 0.926853
166 1 52.8764 14.1872 0.923258
167 1 53.5045 12.3856 2.29004
168 1 57.2496 13.6546 2.3498
169 1 60.1291 13.3455 1.94075
170 1 64.4043 12.1454 0.689441
171 1 65.5863 13.6856 2.03169
172 1 69.8548 13.1243 0.736832
173 1 74.1317 12.5557 2.08869
174 1 75.2284 14.1421 0.739974
175 1 79.4917 13.5693 2.08844
176 1 83.752 12.9985 0.742898
177 1 88.0094 12.4281 2.09106
178 1 89.1059 14.0181 0.747247
8952 1 93.3626 13.4483 2.0962
8953 1 97.6212 12.8809 0.754648
8954 1 98.7187 14.467 2.10353
8955 1 101.882 12.3111 2.1064
8956 1 102.982 13.8983 0.763578
8957 1 107.254 13.3238 2.12182
8958 1 111.536 12.7473 0.788359
8959 1 112.636 14.3224 2.15443
8960 1 115.796 12.1441 2.14016
8961 1 116.946 13.7173 0.844309
8962 1 121.3 14.0966 2.07006
179 1 3.6037 15.3763 2.17163
180 1 7.21747 16.7007 2.23233
181 1 7.8174 14.8862 0.863177
182 1 11.4752 16.1627 0.88243
183 1 15.7446 15.6091 2.25446
184 1 19.392 16.8621 2.26191
185 1 20.0043 15.0458 0.904618
186 1 23.6485 16.2987 0.910001
187 1 27.9032 15.7361 2.27299
188 1 32.1553 15.1721 0.919808
189 1 36.4095 14.6101 2.28203
190 1 35.799 16.426 0.922676
191 1 40.0545 15.8636 2.28406
192 1 44.3153 15.3006 0.92783
193 1 47.9639 16.5524 0.927581
194 1 48.5841 14.7407 2.28802
195 1 52.2355 15.9902 2.28801
196 1 56.5308 15.4391 0.985931
197 1 62.3441 15.8468 2.04241
198 1 61.2356 14.6761 0.228449
199 1 66.7023 15.2813 0.717499
200 1 67.8021 16.8643 2.08014
201 1 70.9625 14.7095 2.08159
202 1 72.0614 16.2997 0.738471
203 1 76.3266 15.7284 2.08817
204 1 80.5892 15.1575 0.742905
205 1 81.6869 16.745 2.0903
206 1 84.8481 14.5867 2.09074
207 1 85.9452 16.1763 0.746724
208 1 90.2018 15.6064 2.09502
8963 1 94.4595 15.038 0.752607
8964 1 95.5559 16.6251 2.10106
8965 1 99.8167 16.0549 0.759264
8966 1 104.083 15.4806 2.1145
8967 1 108.356 14.9081 0.777254
8968 1 109.456 16.4884 2.13097
8969 1 113.727 15.911 0.808724
8970 1 117.963 15.3231 2.292
8971 1 120.619 15.4341 0.173752
8982 1 119.021 16.9327 0.949081
209 1 2.39848 19.0286 2.30936
210 1 2.93524 17.2049 0.870337
211 1 6.60695 18.5168 0.873901
212 1 10.8647 17.9789 2.24133
213 1 14.5176 19.2369 2.25343
214 1 15.1276 17.4217 0.893452
215 1 18.7784 18.6764 0.90218
216 1 23.0385 18.1155 2.26767
217 1 26.6842 19.3697 2.27196
218 1 27.2929 17.5525 0.914339
219 1 31.5465 16.99 2.27651
220 1 30.9369 18.8066 0.917833
221 1 35.1895 18.2438 2.27914
222 1 39.4422 17.6791 0.924973
223 1 43.0836 18.9308 0.926719
224 1 43.6989 17.1155 2.28486
225 1 47.3414 18.3657 2.28453
226 1 51.6128 17.8038 0.928599
227 1 55.8522 17.2357 2.30198
228 1 55.2927 19.0554 0.888212
229 1 59.4675 17.3998 1.93144
230 1 60.498 19.3422 1.02336
231 1 63.5753 17.4315 0.791805
232 1 64.6646 19.0283 2.12909
233 1 68.9017 18.4605 0.744869
234 1 73.1603 17.8859 2.08787
235 1 77.4258 17.3157 0.742604
236 1 78.5259 18.9022 2.08955
237 1 82.7851 18.3343 0.746377
238 1 87.0415 17.7649 2.09393
239 1 88.1381 19.3551 0.750131
8972 1 91.2983 17.1963 0.75115
8973 1 92.3942 18.7843 2.09906
8974 1 96.6524 18.2139 0.756388
8975 1 100.914 17.6396 2.1093
8976 1 102.01 19.2266 0.762486
8977 1 106.277 18.6489 2.12003
8978 1 105.181 17.0661 0.767726
8979 1 110.547 18.0754 0.778879
8980 1 114.82 17.51 2.14742
8981 1 115.902 19.0997 0.771853
8983 1 120.184 18.6574 2.0359
240 1 1.79244 20.8312 0.945954
241 1 6.00317 20.3514 2.21455
242 1 9.64955 21.6142 2.23616
243 1 10.2516 19.7931 0.878234
244 1 13.9052 21.0513 0.893245
245 1 18.1694 20.4916 2.26253
246 1 21.8195 21.7468 2.26824
247 1 22.4274 19.9309 0.908438
248 1 26.0747 21.1858 0.912945
249 1 30.329 20.6243 2.27515
250 1 34.5803 20.0607 0.920684
251 1 38.2221 21.3144 0.923115
252 1 38.8313 19.4969 2.2809
253 1 42.4703 20.7487 2.28177
254 1 46.7214 20.1808 0.927717
255 1 50.9772 19.6153 2.2802
256 1 50.3546 21.4297 0.922318
257 1 54.5856 20.8633 2.21666
258 1 58.9104 20.811 0.197586
259 1 61.5149 21.0886 2.26929
260 1 65.7387 20.6258 0.771449
261 1 69.9958 20.0484 2.09469
262 1 71.0977 21.6306 0.743187
263 1 74.2622 19.4724 0.742783
264 1 75.3664 21.0575 2.08863
265 1 79.6262 20.4911 0.746234
266 1 83.8823 19.9231 2.0928
267 1 84.9791 21.5139 0.749416
268 1 89.2336 20.9441 2.09741
8984 1 93.4899 20.374 0.754433
8985 1 97.7484 19.8003 2.10559
8986 1 98.8431 21.3887 0.759279
8987 1 103.104 20.8116 2.11345
8988 1 107.368 20.2359 0.769645
8989 1 111.635 19.6653 2.12894
8990 1 112.722 21.2587 0.779961
8991 1 116.952 20.7288 2.1027
8992 1 121.213 19.7854 0.158997
269 1 1.15822 22.7942 2.04109
270 1 0.460389 24.1006 0.126537
271 1 4.82117 24.016 2.16908
272 1 5.38277 22.1644 0.831989
273 1 9.03242 23.4344 0.882872
274 1 13.301 22.8669 2.25677
275 1 16.9545 24.1214 2.26577
276 1 17.5593 22.3065 0.902829
277 1 21.2109 23.5624 0.908749
278 1 25.4677 23.0026 2.27203
279 1 29.7208 22.4411 0.916286
280 1 33.3657 23.6964 0.918844
281 1 33.9728 21.879 2.27751
282 1 37.6153 23.1335 2.27927
283 1 41.8611 22.5675 0.925426
284 1 46.1031 21.9984 2.28125
285 1 45.4947 23.8197 0.927875
286 1 49.7224 23.2441 2.27616
287 1 53.9752 22.6924 0.891975
288 1 58.2226 22.122 2.10092
289 1 57.5466 24.0473 0.976519
290 1 62.5155 22.7391 0.821167
291 1 67.922 23.7909 0.732667
292 1 66.8285 22.218 2.10889
293 1 72.2113 23.2111 2.08603
294 1 76.4699 22.6459 0.746177
295 1 77.5709 24.2362 2.08899
296 1 80.7249 22.0804 2.09138
297 1 81.822 23.6721 0.748862
298 1 86.0745 23.1039 2.09591
299 1 90.3289 22.5346 0.753037
8993 1 91.4233 24.1236 2.10087
8994 1 94.5849 21.9618 2.1029
8995 1 95.6793 23.5514 0.757178
8996 1 99.9369 22.9756 2.10903
8997 1 104.195 22.3996 0.764301
8998 1 105.285 23.9875 2.11449
8999 1 108.457 21.8228 2.12154
9000 1 109.54 23.4129 0.768874
9001 1 113.802 22.8557 2.13131
9002 1 118.101 22.3293 0.818211
9003 1 119.138 23.9573 2.22722
300 1 4.12649 25.8592 0.88161
301 1 8.43735 25.2545 2.25282
302 1 12.0923 26.4984 2.26727
303 1 12.6923 24.6838 0.899715
304 1 16.3484 25.9376 0.906943
305 1 20.6059 25.3781 2.27023
306 1 24.2552 26.6354 2.27295
307 1 24.8602 24.8188 0.912721
308 1 29.1144 24.2585 2.27471
309 1 28.5079 26.0754 0.915498
310 1 32.7602 25.5145 2.27669
311 1 37.0095 24.9517 0.920947
312 1 41.2558 24.3879 2.28077
313 1 40.652 26.2072 0.923045
314 1 44.8934 25.6423 2.2829
315 1 49.1164 25.0715 0.9327
316 1 53.319 24.4814 2.28096
317 1 52.7106 26.3219 0.965027
318 1 56.8369 25.7417 2.40152
319 1 59.3395 25.3306 0.154075
320 1 60.2109 26.4209 2.13718
321 1 63.6723 24.3684 2.04497
322 1 64.7428 25.9711 0.672344
323 1 69.0673 25.3567 2.06806
324 1 73.319 24.7989 0.743976
325 1 74.4235 26.3904 2.08333
326 1 78.6681 25.8298 0.747992
327 1 82.9172 25.2634 2.09437
328 1 87.1693 24.6954 0.751965
329 1 88.2631 26.2856 2.09922
9004 1 92.5173 25.7141 0.755622
9005 1 96.7728 25.1396 2.10611
9006 1 101.029 24.5648 0.761421
9007 1 102.12 26.1535 2.11079
9008 1 106.372 25.5776 0.764012
9009 1 110.625 25.005 2.11544
9010 1 111.703 26.5946 0.756729
9011 1 115.973 26.0623 2.0987
9012 1 114.881 24.4523 0.780563
9013 1 120.203 25.5784 0.896129
330 1 1.0405 28.5118 0.108923
331 1 3.58543 27.715 2.29958
332 1 7.23327 28.8987 2.27995
333 1 7.82244 27.0787 0.908512
334 1 11.4896 28.3167 0.91143
335 1 15.7474 27.7524 2.27187
336 1 19.3985 29.0108 2.27325
337 1 20.0006 27.1946 0.911035
338 1 23.65 28.4524 0.913775
339 1 27.9029 27.8926 2.27487
340 1 32.1546 27.3318 0.917444
341 1 36.4052 26.7706 2.27829
342 1 35.8009 28.5882 0.918827
343 1 40.05 28.0271 2.28001
344 1 44.293 27.4634 0.92628
345 1 48.528 26.8976 2.29041
346 1 47.9336 28.7204 0.933941
347 1 52.1588 28.1579 2.3138
348 1 56.3765 27.5011 0.913767
349 1 59.8145 28.4775 0.97525
350 1 65.9785 27.4893 1.98888
351 1 70.1795 26.9495 0.731837
352 1 71.2887 28.5429 2.06915
353 1 75.5196 27.9879 0.745439
354 1 79.7625 27.423 2.09244
355 1 80.8552 29.0178 0.750118
356 1 84.0113 26.8563 0.751048
357 1 85.1042 28.4478 2.09787
358 1 89.3567 27.877 0.754332
9014 1 93.6107 27.3033 2.10395
9015 1 94.7037 28.8939 0.758159
9016 1 97.8654 26.7296 0.759684
9017 1 98.9575 28.3187 2.10856
9018 1 103.21 27.7443 0.763246
9019 1 107.459 27.1694 2.11142
9020 1 108.544 28.7612 0.761961
9021 1 112.782 28.1933 2.09442
9022 1 117.048 27.645 0.705932
9023 1 121.383 27.3134 1.96426
359 1 2.39924 31.5009 2.24981
360 1 2.9469 29.5725 0.991361
361 1 6.62429 30.7248 0.933491
362 1 10.8973 30.1304 2.28243
363 1 14.5505 31.3864 2.27806
364 1 15.147 29.5701 0.913609
365 1 18.7968 30.8288 0.914645
366 1 23.0467 30.2694 2.27434
367 1 26.6937 31.5271 2.27536
368 1 27.2978 29.7098 0.91567
369 1 31.55 29.1494 2.27625
370 1 30.9451 30.9667 0.916798
371 1 35.1969 30.4063 2.27724
372 1 39.4472 29.845 0.920046
373 1 43.6952 29.2846 2.2832
374 1 43.0944 31.1023 0.921918
375 1 47.3426 30.5434 2.29013
376 1 51.5852 29.9742 0.939516
377 1 55.8219 29.3617 2.28967
378 1 55.2509 31.1979 0.949773
379 1 59.465 30.4013 2.37112
380 1 62.9703 29.7442 1.93742
381 1 64.0472 31.3652 0.686581
382 1 67.0829 29.1131 0.697931
383 1 68.1775 30.7044 2.05413
384 1 72.3811 30.1491 0.740251
385 1 76.6115 29.5836 2.08992
386 1 77.7018 31.1811 0.749347
387 1 81.9463 30.6107 2.09702
388 1 86.197 30.0401 0.753279
9024 1 90.4497 29.4669 2.10221
9025 1 91.5427 31.0581 0.756662
9026 1 95.7964 30.4834 2.10657
9027 1 100.049 29.9098 0.762525
9028 1 101.141 31.4999 2.11089
9029 1 104.299 29.3352 2.11154
9030 1 105.389 30.9277 0.766545
9031 1 109.629 30.3564 2.10727
9032 1 113.862 29.7801 0.733536
9033 1 114.931 31.388 2.06701
9034 1 118.103 29.2916 1.99413
9035 1 119.197 30.8764 0.614307
389 1 1.77953 33.5313 1.07852
390 1 6.0667 32.5319 2.33381
391 1 9.72528 33.77 2.28728
392 1 10.3076 31.9501 0.925514
393 1 13.9573 33.2064 0.919892
394 1 18.1972 32.6466 2.27575
395 1 21.8413 33.9057 2.27561
396 1 22.4435 32.0875 0.915887
397 1 26.0893 33.3451 0.916841
398 1 30.3404 32.7841 2.27602
399 1 34.5925 32.2233 0.917194
400 1 38.8444 31.6634 2.27812
401 1 38.2407 33.48 0.916914
402 1 42.4933 32.9212 2.27935
403 1 46.7444 32.3596 0.925205
404 1 50.9976 31.7974 2.29749
405 1 50.4018 33.6127 0.928527
406 1 54.6594 33.0299 2.31078
407 1 58.9183 32.349 1.09816
408 1 60.7618 33.5631 0.2368
409 1 65.1033 32.9055 2.07049
410 1 69.2593 32.3221 0.739448
411 1 70.3228 33.9223 2.1005
412 1 73.465 31.7478 2.08912
413 1 74.5515 33.3479 0.750821
414 1 78.7892 32.7755 2.0977
415 1 83.0381 32.204 0.752674
416 1 84.1293 33.7955 2.10058
417 1 87.2894 31.6309 2.10095
418 1 88.3823 33.2223 0.755396
9036 1 92.6358 32.6478 2.10466
9037 1 96.8891 32.0744 0.760956
9038 1 97.9822 33.664 2.10899
9039 1 102.233 33.0919 0.766637
9040 1 106.479 32.5196 2.11437
9041 1 110.721 31.9506 0.766891
9042 1 111.808 33.5443 2.11704
9043 1 116.051 32.9786 0.744989
9044 1 120.24 32.7543 1.60327
419 1 5.54826 34.3759 0.99072
420 1 4.89886 36.2088 2.27138
421 1 9.14973 35.5956 0.928717
422 1 13.3637 35.028 2.27709
423 1 16.9982 36.2877 2.27559
424 1 17.5982 34.4669 0.918594
425 1 21.2386 35.7254 0.918738
426 1 25.4852 35.163 2.27607
427 1 29.7353 34.6016 0.917132
428 1 33.382 35.8576 0.916529
429 1 33.9874 34.0406 2.27613
430 1 37.6353 35.2971 2.27553
431 1 41.8908 34.7367 0.915935
432 1 46.145 34.1793 2.28099
433 1 45.544 35.9932 0.913816
434 1 49.8008 35.4343 2.28097
435 1 54.0638 34.8535 0.940858
436 1 58.2725 34.2564 2.36593
437 1 57.7319 36.1178 0.938707
438 1 61.7735 34.798 2.05593
439 1 66.1299 34.5143 0.74121
440 1 67.1586 36.0991 2.14933
441 1 71.4032 35.5201 0.761128
442 1 75.6314 34.9437 2.10312
443 1 79.8796 34.3692 0.753281
444 1 80.9684 35.9614 2.10208
445 1 85.2217 35.387 0.754757
446 1 89.4753 34.8124 2.10316
9055 1 90.5688 36.403 0.757152
9045 1 93.729 34.2387 0.758975
9046 1 94.823 35.8281 2.10662
9047 1 99.0758 35.2551 0.764237
9048 1 103.327 34.6818 2.11437
9049 1 104.423 36.2735 0.772561
9050 1 107.575 34.1134 0.775236
9051 1 108.672 35.7022 2.12333
9052 1 112.921 35.1405 0.800479
9053 1 117.111 34.5686 2.14777
9054 1 118.382 36.1108 0.934637
447 1 0.813979 37.6351 1.85083
448 1 4.12703 37.8901 0.783839
449 1 8.53802 37.4231 2.26062
450 1 12.1583 38.6756 2.26857
451 1 12.7684 36.8515 0.922499
452 1 16.3951 38.1097 0.921445
453 1 20.635 37.5451 2.27632
454 1 24.2747 38.8004 2.27716
455 1 24.8804 36.9819 0.918939
456 1 29.1299 36.4191 2.2762
457 1 28.5238 38.2372 0.91852
458 1 32.7755 37.6746 2.27548
459 1 37.0299 37.1133 0.914782
460 1 41.2847 36.5536 2.27391
461 1 40.6795 38.3689 0.911382
462 1 44.9357 37.8099 2.27021
463 1 49.2026 37.2478 0.908371
464 1 52.8657 38.506 0.890783
465 1 53.4503 36.6876 2.2726
466 1 57.0472 37.9784 2.20262
467 1 62.9634 36.5313 0.986702
468 1 61.3459 37.9761 0.206366
469 1 63.9844 38.2054 2.29864
470 1 68.2459 37.6838 0.806446
471 1 72.4689 37.1166 2.12133
472 1 73.5585 38.7019 0.768555
473 1 76.7204 36.536 0.757111
474 1 77.8052 38.1289 2.10737
475 1 82.0603 37.5525 0.755382
476 1 86.3144 36.9773 2.10251
477 1 87.4081 38.5676 0.755944
9056 1 91.6632 37.9924 2.10448
9057 1 95.9172 37.4186 0.761188
9058 1 100.171 36.8441 2.11167
9059 1 101.267 38.4344 0.76783
9060 1 105.522 37.8607 2.11975
9061 1 109.778 37.2927 0.78915
9062 1 114.041 36.7159 2.1575
9063 1 115.188 38.2788 0.828051
9064 1 119.625 37.5611 2.39688
478 1 3.70672 39.6961 2.23883
479 1 7.28916 41.0359 2.24598
480 1 7.87672 39.2159 0.895582
481 1 11.5292 40.4884 0.912913
482 1 15.7854 39.9311 2.27397
483 1 19.4192 41.1849 2.2776
484 1 20.0286 39.3656 0.921641
485 1 23.6671 40.6198 0.921644
486 1 27.9168 40.0548 2.27718
487 1 32.1688 39.492 0.917102
488 1 36.4221 38.9298 2.27352
489 1 35.8149 40.7465 0.914318
490 1 40.0699 40.1848 2.26964
491 1 44.3318 39.6241 0.905039
492 1 47.9885 40.8796 0.891751
493 1 48.5868 39.0647 2.26039
494 1 52.2272 40.323 2.23415
495 1 56.5174 39.8251 0.83409
496 1 60.6752 39.3044 2.09989
497 1 65.024 39.8055 0.856721
498 1 69.2971 39.2861 2.16088
499 1 70.3889 40.8563 0.786069
500 1 74.6369 40.2966 2.1189
501 1 78.8964 39.7183 0.758206
502 1 83.1523 39.1429 2.10328
503 1 84.246 40.7323 0.755693
504 1 88.5026 40.157 2.10306
9065 1 92.7579 39.5824 0.758368
9066 1 93.854 41.1711 2.10501
9067 1 97.013 39.0073 2.10826
9068 1 98.109 40.5968 0.762998
9069 1 102.366 40.0211 2.11507
9070 1 106.624 39.4488 0.779017
9071 1 107.731 41.0291 2.12836
9072 1 110.892 38.8708 2.13661
9073 1 112.011 40.4449 0.792741
9074 1 116.344 39.8299 2.17381
9075 1 120.6 39.7951 1.16128
505 1 2.32222 43.2295 2.22264
506 1 2.96715 41.4275 0.869769
507 1 6.62279 42.8174 0.872731
508 1 10.9169 42.3067 2.26497
509 1 14.5512 43.5662 2.27616
510 1 15.1666 41.7489 0.92044
511 1 18.8047 43.0036 0.923664
512 1 23.0578 42.4377 2.27945
513 1 26.6995 43.6903 2.2796
514 1 27.3088 41.8733 0.920838
515 1 31.5607 41.3089 2.27595
516 1 30.9525 43.1267 0.918907
517 1 35.2055 42.5628 2.2731
518 1 39.462 42.0008 0.909581
519 1 43.1099 43.255 0.901722
520 1 43.7188 41.4394 2.26236
521 1 47.3682 42.6934 2.24811
522 1 51.6517 42.1438 0.862953
523 1 55.8374 41.6107 2.21005
524 1 55.3248 43.4451 0.831472
525 1 60.0859 41.2798 1.0005
526 1 59.347 42.9789 2.43369
527 1 61.9589 42.4148 0.15463
528 1 63.0533 43.6143 1.89387
529 1 66.1516 41.4208 2.12213
530 1 67.2285 42.9993 0.745848
531 1 71.461 42.4563 2.1319
532 1 75.7273 41.8823 0.763678
533 1 76.8183 43.4731 2.10992
534 1 79.9877 41.3086 2.10593
535 1 81.0813 42.8966 0.756478
536 1 85.3407 42.3214 2.10267
537 1 89.5977 41.7463 0.756238
9076 1 90.6941 43.3351 2.10248
9077 1 94.95 42.7603 0.758743
9078 1 99.2074 42.1839 2.10979
9079 1 103.465 41.6088 0.771146
9080 1 104.568 43.1912 2.11995
9081 1 108.839 42.6108 0.785389
9082 1 113.121 42.0115 2.15356
9083 1 114.219 43.6038 0.819235
9084 1 117.364 41.4082 0.736073
9085 1 118.478 42.9172 2.12717
538 1 1.79441 45.057 0.778288
539 1 6.01538 44.6154 2.24537
540 1 9.66311 45.9217 2.2734
541 1 10.2791 44.113 0.907214
542 1 13.9268 45.3802 0.920975
543 1 18.1908 44.8202 2.28162
544 1 21.8337 46.0721 2.28401
545 1 22.4458 44.2561 0.924636
546 1 26.0891 45.5083 0.923971
547 1 30.343 44.9431 2.27808
548 1 34.5972 44.3802 0.915553
549 1 38.851 43.8167 2.26804
550 1 38.2424 45.6339 0.910322
551 1 42.4966 45.0704 2.25965
552 1 46.7581 44.5099 0.888365
553 1 50.4059 45.7695 0.864931
554 1 51.0161 43.9513 2.22288
555 1 54.6547 45.2352 2.19403
556 1 59.0108 44.9285 1.09198
557 1 64.2028 45.1942 0.679204
558 1 68.2909 44.5959 2.11761
559 1 72.5507 44.0394 0.768675
560 1 73.6411 45.6328 2.11304
561 1 77.9118 45.059 0.757821
562 1 82.1766 44.4852 2.10324
563 1 83.2729 46.0723 0.754556
564 1 86.4362 43.9099 0.754991
565 1 87.5332 45.4986 2.10086
9086 1 91.7902 44.9239 0.755485
9087 1 96.0481 44.348 2.10487
9088 1 97.1449 45.936 0.757789
9089 1 100.305 43.7716 0.763801
9090 1 101.406 45.3564 2.11108
9091 1 105.669 44.7755 0.773222
9092 1 109.944 44.1845 2.14332
9093 1 111.036 45.7711 0.795082
9094 1 115.326 45.1577 2.21116
9095 1 119.587 44.6712 1.02154
566 1 1.196 46.868 2.13249
567 1 4.79284 48.2315 2.28953
568 1 5.39957 46.4304 0.893341
569 1 9.04629 47.736 0.916138
570 1 13.3104 47.1934 2.28271
571 1 16.9587 48.4503 2.28885
572 1 17.5729 46.6365 0.926812
573 1 21.2197 47.8891 0.928835
574 1 25.4783 47.324 2.284
575 1 29.7336 46.761 0.921875
576 1 33.3785 48.0142 0.918406
577 1 33.9872 46.1963 2.27481
578 1 37.6316 47.4498 2.26955
579 1 41.8874 46.8879 0.902418
580 1 45.5319 48.143 0.890311
581 1 46.142 46.3247 2.24591
582 1 49.7875 47.5826 2.22336
583 1 54.0549 47.0377 0.814212
584 1 57.6461 48.2444 0.828774
585 1 58.3365 46.7576 2.53302
586 1 61.1795 46.9893 1.24746
587 1 65.1994 46.7745 2.11606
588 1 66.248 48.3662 0.756013
589 1 69.378 46.1911 0.763002
590 1 70.4596 47.7901 2.11308
591 1 74.7356 47.2176 0.758831
592 1 79.0086 46.6467 2.10424
593 1 80.1069 48.2322 0.754783
594 1 84.3708 47.6607 2.09999
595 1 88.6297 47.0869 0.753319
9096 1 92.8882 46.5123 2.10099
9097 1 93.9848 48.1004 0.753375
9098 1 98.2443 47.5226 2.10379
9099 1 102.503 46.9423 0.762701
9100 1 103.603 48.5261 2.11073
9101 1 106.771 46.3552 2.12455
9102 1 107.863 47.9404 0.772577
9103 1 112.139 47.3473 2.14898
9104 1 116.361 46.7846 0.869871
9105 1 117.518 48.3695 2.16032
596 1 0.552424 48.8141 1.0072
597 1 4.22644 50.0643 0.939969
598 1 8.43449 49.5531 2.27702
599 1 12.0819 50.8242 2.29124
600 1 12.6924 49.0093 0.926809
601 1 16.3431 50.267 0.933975
602 1 20.6075 49.7031 2.29112
603 1 24.2564 50.9556 2.29035
604 1 24.867 49.1413 0.928251
605 1 29.1236 48.5766 2.2821
606 1 28.5142 50.3942 0.925966
607 1 32.7689 49.8299 2.27862
608 1 37.0229 49.2678 0.913466
609 1 41.2755 48.7034 2.26181
610 1 40.666 50.5218 0.906822
611 1 44.9194 49.9578 2.25075
612 1 49.1762 49.4015 0.870204
613 1 52.8227 50.6633 0.828833
614 1 53.4407 48.8466 2.18604
615 1 57.0116 50.1668 1.99309
616 1 62.0858 48.9217 2.22478
617 1 63.1198 50.4915 0.830735
618 1 67.2832 49.9746 2.12828
619 1 71.5544 49.3744 0.757174
620 1 72.657 50.9587 2.10598
621 1 75.8349 48.8042 2.10525
622 1 76.938 50.3876 0.755735
623 1 81.2067 49.82 2.09944
624 1 85.4681 49.2485 0.752129
625 1 86.5665 50.8376 2.09651
626 1 89.7277 48.6757 2.09828
9106 1 90.8243 50.2641 0.750446
9107 1 95.0835 49.6885 2.09843
9108 1 99.3406 49.1096 0.754956
9109 1 100.44 50.6962 2.10077
9110 1 104.696 50.1124 0.759228
9111 1 108.959 49.5225 2.12365
9112 1 113.213 48.9404 0.78792
9113 1 114.302 50.5277 2.13611
9114 1 118.532 49.9962 0.73364
627 1 3.55618 51.893 2.24007
628 1 7.21819 53.198 2.27902
629 1 7.82466 51.3756 0.919429
630 1 11.4663 52.6458 0.941491
631 1 15.7324 52.0801 2.29978
632 1 19.3849 53.3327 2.30071
633 1 19.995 51.5199 0.935627
634 1 23.6464 52.7726 0.934107
635 1 27.9048 52.2089 2.28775
636 1 32.1608 51.6479 0.922509
637 1 36.4134 51.0837 2.27367
638 1 35.8063 52.9024 0.918151
639 1 40.0567 52.3378 2.26726
640 1 44.3068 51.7763 0.898068
641 1 47.9434 53.0307 0.885844
642 1 48.5661 51.2148 2.23444
643 1 52.2271 52.4776 2.20354
644 1 56.4364 51.9863 0.62281
645 1 59.8477 52.4719 0.9218
646 1 64.0488 52.1711 2.18187
647 1 68.3747 51.5415 0.757333
648 1 69.4794 53.1191 2.10936
649 1 73.769 52.5381 0.756638
650 1 78.0416 51.975 2.09866
651 1 82.3055 51.4074 0.751772
652 1 83.4046 52.9971 2.09525
653 1 87.6633 52.4261 0.748732
9115 1 91.9227 51.8531 2.09486
9116 1 96.1796 51.2762 0.749585
9117 1 97.2782 52.8646 2.09408
9118 1 101.533 52.2835 0.74976
9119 1 105.793 51.6984 2.10636
9120 1 106.879 53.2873 0.752392
9121 1 110.043 51.112 0.769328
9122 1 111.133 52.6993 2.11893
9123 1 115.379 52.1331 0.797503
9124 1 119.611 51.5901 2.06807
9125 1 120.77 53.3204 0.988371
654 1 2.39915 55.5225 2.16293
655 1 3.0021 53.7113 0.799876
656 1 6.59484 55.0399 0.956296
657 1 10.8585 54.4604 2.31263
658 1 14.5115 55.7112 2.31647
659 1 15.1201 53.899 0.947153
660 1 18.7754 55.1502 0.945392
661 1 23.0373 54.5859 2.29818
662 1 26.6887 55.8401 2.29437
663 1 27.2967 54.0262 0.931101
664 1 31.5525 53.4631 2.28404
665 1 30.9458 55.2809 0.927413
666 1 35.1991 54.7181 2.27964
667 1 39.4501 54.1576 0.913147
668 1 43.6979 53.5922 2.25946
669 1 43.0912 55.4135 0.908174
670 1 47.3365 54.8459 2.25094
671 1 51.569 54.2825 0.869187
672 1 55.1646 55.5139 0.855366
673 1 55.9615 53.7471 2.13564
674 1 60.5657 54.3517 2.16128
675 1 61.8777 55.8062 0.70206
676 1 65.1569 53.697 0.76306
677 1 66.2884 55.2747 2.09429
678 1 70.6081 54.6856 0.756674
679 1 74.8794 54.1252 2.09626
680 1 75.9839 55.7144 0.752007
681 1 79.1429 53.5627 0.752075
682 1 80.2433 55.1536 2.09388
683 1 84.5018 54.5861 0.747918
684 1 88.7615 54.0159 2.09268
685 1 89.8579 55.6045 0.744356
9126 1 93.019 53.4413 0.746222
9127 1 94.1173 55.0307 2.09008
9128 1 98.3729 54.4524 0.743786
9129 1 102.631 53.8719 2.09402
9130 1 103.721 55.4606 0.741068
9131 1 107.974 54.8779 2.09474
9132 1 112.206 54.2941 0.763562
9133 1 116.471 53.7078 2.17193
9134 1 117.505 55.3265 0.825221
686 1 1.73805 57.4704 1.05809
687 1 5.9792 56.8518 2.35376
688 1 9.63454 58.1001 2.34948
689 1 10.2457 56.2884 0.972315
690 1 13.9036 57.5321 0.965408
691 1 18.1674 56.9623 2.31251
692 1 21.8224 58.2157 2.3067
693 1 22.4296 56.4028 0.941383
694 1 26.0824 57.6572 0.936927
695 1 30.339 57.0955 2.29022
696 1 34.5939 56.5367 0.923475
697 1 38.8445 55.9738 2.27496
698 1 38.2408 57.7934 0.919739
699 1 42.4884 57.2303 2.27104
700 1 46.7276 56.6697 0.906093
701 1 50.9728 56.094 2.24901
702 1 50.3549 57.9241 0.92024
703 1 54.5977 57.3163 2.26718
704 1 58.7106 56.3017 1.24221
705 1 63.1143 57.4337 1.96111
706 1 67.4626 56.8234 0.746924
707 1 71.7297 56.2723 2.08902
708 1 72.8363 57.8654 0.749524
709 1 77.0855 57.308 2.09134
710 1 81.3406 56.7441 0.747597
711 1 85.5998 56.1767 2.09139
712 1 86.6962 57.7659 0.743472
9135 1 90.956 57.1945 2.08798
9136 1 95.2129 56.619 0.740566
9137 1 96.311 58.2093 2.08336
9138 1 99.4707 56.0422 2.08685
9139 1 100.564 57.6308 0.735454
9140 1 104.818 57.0524 2.08144
9141 1 109.057 56.469 0.737804
9142 1 110.153 58.0642 2.07095
9143 1 113.302 55.8853 2.10021
9144 1 114.367 57.4805 0.730798
9145 1 118.666 56.8994 2.11285
713 1 4.74174 60.5289 2.43831
714 1 5.38642 58.717 1.05688
715 1 9.03451 59.9326 1.00928
716 1 13.2963 59.3433 2.33676
717 1 16.9558 60.5924 2.3246
718 1 17.5617 58.7804 0.956847
719 1 21.2177 60.0328 0.949094
720 1 25.4759 59.4708 2.30104
722 1 29.7337 58.9129 0.932653
723 1 33.3842 60.1697 0.928877
724 1 33.9885 58.3518 2.28623
725 1 37.6373 59.609 2.28298
726 1 41.8867 59.051 0.917238
727 1 45.5317 60.3088 0.919055
728 1 46.1316 58.4875 2.27157
729 1 49.7767 59.745 2.28765
730 1 53.9821 59.1633 0.965022
731 1 58.2229 58.366 2.35976
732 1 57.6519 60.2663 1.07793
733 1 61.486 60.7069 1.07173
734 1 64.3978 58.9659 0.685325
735 1 65.5138 60.577 2.03925
736 1 68.6054 58.415 2.06282