ITEM: TIMESTEP
8723
ITEM: NUMBER OF ATOMS
7464
ITEM: BOX BOUNDS pp pp pp
1.4865220855883332e-01 1.6600799779144089e+02
-2.7771196898934116e-02 5.5413321196898863e+01
8.5739107705107582e-03 1.6284426089229488e+01
ITEM: ATOMS id type x y z
1 1 1.47146 0.491142 1.12833
2 1 5.82981 0.999247 2.49844
3 1 10.0636 1.53536 1.15402
4 1 14.3185 2.07062 2.5205
5 1 15.3821 0.469633 1.16659
6 1 19.6446 1.00589 2.53341
7 1 23.9046 1.53745 1.18772
8 1 28.166 2.07272 2.55418
9 1 29.2303 0.471599 1.20074
10 1 33.4916 1.00685 2.56719
11 1 37.7514 1.53826 1.22155
12 1 43.077 0.472403 1.23455
13 1 42.0127 2.07353 2.588
14 1 47.3383 1.00766 2.601
15 1 51.598 1.53906 1.25537
16 1 56.9237 0.47316 1.2684
17 1 55.8593 2.07426 2.62179
18 1 61.1855 1.00857 2.63492
19 1 65.4475 1.54125 1.28875
20 1 69.7145 2.08299 2.65747
21 1 70.7722 0.480939 1.30157
3361 1 74.9885 1.0198 2.66633
3362 1 79.0752 1.56943 1.27364
3363 1 82.9565 1.25045 2.07615
3364 1 87.3718 0.876102 0.316391
3365 1 92.6847 1.93841 0.323365
3366 1 91.6279 0.328373 1.67354
3367 1 96.9464 1.40137 1.69128
3368 1 101.207 0.86888 0.345502
3369 1 105.468 0.332934 1.71219
3370 1 106.533 1.93389 0.35865
3371 1 110.794 1.39811 1.7252
3372 1 115.054 0.866173 0.379468
3373 1 119.315 0.330384 1.74601
3374 1 120.379 1.93138 0.392472
3375 1 124.641 1.39558 1.75902
3376 1 128.9 0.863641 0.41328
3377 1 134.226 1.92884 0.426287
3378 1 133.162 0.327846 1.77983
3379 1 138.487 1.39305 1.79284
3380 1 142.747 0.861188 0.447125
3381 1 148.073 1.92684 0.460387
3382 1 147.008 0.325773 1.81332
3383 1 152.335 1.39051 1.82609
3384 1 156.607 0.85406 0.470587
3385 1 160.914 0.316956 1.80415
3386 1 162.027 1.84861 0.413509
22 1 0.794789 2.52989 2.03953
23 1 1.22073 4.10167 0.233868
24 1 4.76883 2.59065 1.13218
25 1 3.77867 4.25229 2.48874
26 1 9.00526 3.14381 2.50406
27 1 7.94024 4.7472 1.14943
28 1 13.2555 3.66956 1.16134
29 1 18.5785 2.60287 1.17449
30 1 17.5147 4.20409 2.52808
32 1 21.7743 4.7357 1.18245
31 1 22.8402 3.13849 2.54118
33 1 27.1 3.66998 1.19553
34 1 31.3614 4.20525 2.56199
35 1 32.4257 2.60413 1.20854
36 1 35.6211 4.73666 1.21635
37 1 36.687 3.13939 2.57499
38 1 40.9468 3.6708 1.22935
39 1 45.2081 4.20607 2.5958
40 1 46.2724 2.60494 1.24236
41 1 49.4678 4.73749 1.25016
42 1 50.5337 3.1402 2.60881
43 1 54.7934 3.67158 1.26318
44 1 60.1191 2.60551 1.27624
45 1 59.0545 4.20663 2.62951
46 1 64.3813 3.14078 2.64247
47 1 63.314 4.73742 1.28405
48 1 68.6471 3.67525 1.2948
49 1 73.9804 2.6403 1.29366
50 1 72.9287 4.23046 2.6648
3387 1 78.1766 3.22642 2.65571
3388 1 82.3995 3.33228 1.13692
3389 1 85.3185 4.70253 1.71998
3390 1 88.4724 2.46001 1.65418
3391 1 89.4912 4.09209 0.309492
3392 1 93.7488 3.53561 1.68372
3393 1 98.0111 3.00188 0.33758
3394 1 99.0775 4.59862 1.69654
3395 1 103.337 4.06678 0.350855
3396 1 102.273 2.46585 1.70435
3397 1 107.599 3.53103 1.71739
3398 1 111.858 2.9991 0.371665
3399 1 112.924 4.59625 1.73041
3400 1 117.184 4.06431 0.384669
3401 1 116.12 2.46332 1.73821
3402 1 121.445 3.52852 1.75122
3403 1 125.705 2.99658 0.405477
3404 1 126.771 4.59372 1.76422
3405 1 129.966 2.46078 1.77202
3406 1 131.031 4.06178 0.418483
3407 1 135.292 3.52599 1.78503
3408 1 139.552 2.99408 0.439327
3409 1 140.618 4.59123 1.79806
3410 1 143.813 2.4584 1.80587
3411 1 144.877 4.05939 0.452514
3412 1 149.139 3.52317 1.81969
3413 1 153.403 2.98944 0.474167
3414 1 154.468 4.58239 1.83962
3415 1 157.672 2.43952 1.84325
3416 1 158.738 4.03348 0.494961
3417 1 162.896 3.4991 1.83963
51 1 2.61557 5.78223 1.11404
52 1 6.86976 6.36838 2.4785
53 1 11.1247 6.87187 1.15608
54 1 12.1928 5.27353 2.51284
55 1 16.4496 5.80197 1.16943
56 1 20.7102 6.33689 2.53597
57 1 26.0357 5.27108 2.54899
58 1 24.9698 6.86834 1.19032
59 1 30.2954 5.80252 1.20334
60 1 34.5568 6.33779 2.56979
61 1 39.8824 5.27193 2.5828
62 1 38.8165 6.8692 1.22415
63 1 44.1421 5.80334 1.23715
64 1 48.4035 6.33861 2.60361
65 1 52.6632 6.87005 1.25795
66 1 53.7291 5.27275 2.61661
67 1 57.9886 5.80408 1.27098
68 1 62.2493 6.33877 2.63708
69 1 66.5073 6.86822 1.29215
70 1 67.5768 5.27176 2.64912
71 1 71.8508 5.80998 1.299
3418 1 76.1965 6.38344 2.68069
3419 1 77.2533 4.84793 1.25242
3420 1 80.7838 6.94957 1.29116
3421 1 81.6355 5.10282 2.54741
3422 1 86.2528 6.32529 0.31627
3423 1 90.5466 5.67931 1.68422
3424 1 94.8154 5.1348 0.330293
3425 1 95.8823 6.73125 1.68926
3426 1 100.142 6.19953 0.343206
3427 1 104.403 5.66391 1.70958
3428 1 108.663 5.13203 0.363864
3429 1 109.729 6.72919 1.72261
3430 1 113.989 6.19725 0.376866
3431 1 118.25 5.66145 1.74341
3432 1 122.51 5.12951 0.397674
3433 1 123.576 6.72665 1.75642
3434 1 127.835 6.19471 0.410679
3435 1 132.097 5.65892 1.77722
3436 1 136.356 5.12699 0.431497
3437 1 137.422 6.72414 1.79023
3438 1 141.682 6.1922 0.444526
3439 1 145.944 5.65622 1.81135
3440 1 150.204 5.12358 0.466372
3441 1 151.27 6.71992 1.82606
3442 1 155.526 6.18598 0.487271
3443 1 159.746 5.6414 1.89283
3444 1 163.936 5.25255 0.725123
3445 1 165.103 6.27026 2.60539
72 1 0.391147 9.17096 1.04533
73 1 1.35079 7.37659 2.28723
74 1 4.65404 9.5133 2.51967
75 1 5.73799 7.943 1.12792
76 1 10.0577 8.47266 2.50916
77 1 14.3189 9.0013 1.165
78 1 15.3859 7.40385 2.52258
79 1 18.5802 9.53575 2.53076
80 1 19.6445 7.93442 1.17743
81 1 23.9055 8.4695 2.54379
82 1 28.1652 9.00091 1.19814
83 1 29.2311 7.40363 2.55679
84 1 33.4908 7.93506 1.21114
85 1 32.4265 9.53618 2.56459
86 1 37.7522 8.47032 2.57759
87 1 42.0119 9.00174 1.23195
88 1 43.0778 7.40446 2.5906
89 1 47.3375 7.93588 1.24496
90 1 46.2732 9.537 2.5984
91 1 51.5989 8.47116 2.61141
92 1 55.8587 9.00264 1.26574
93 1 56.9245 7.40534 2.62441
94 1 60.12 9.53807 2.63229
95 1 61.1837 7.93663 1.27877
96 1 65.443 8.47054 2.64465
97 1 69.6961 8.99572 1.30258
98 1 70.7704 7.39862 2.65542
99 1 73.9557 9.50666 2.66362
3446 1 75.066 7.92689 1.31531
4129 1 79.5723 8.45557 2.71798
3447 1 82.5715 8.28787 0.205173
3448 1 87.3213 7.84321 1.71161
3449 1 88.4134 9.38765 0.315509
3450 1 91.6208 7.26849 0.326584
3451 1 92.6893 8.86419 1.68279
3452 1 96.9473 8.33216 0.335926
3453 1 102.272 9.3979 0.348331
3454 1 101.208 7.79674 1.70183
3455 1 105.468 7.26496 0.356083
3456 1 106.534 8.86214 1.71482
3457 1 110.793 8.33019 0.369064
3458 1 115.055 7.79439 1.73561
3459 1 116.119 9.39538 0.382069
3460 1 119.314 7.26245 0.389871
3461 1 120.38 8.85959 1.74861
3462 1 124.64 8.32765 0.402876
3463 1 128.901 7.79186 1.76942
3464 1 129.966 9.39285 0.415881
3465 1 133.161 7.25992 0.423684
3466 1 134.227 8.85706 1.78242
3467 1 138.487 8.32511 0.436677
3468 1 143.812 9.39014 0.449557
3469 1 142.748 7.78925 1.80326
3470 1 147.008 7.25695 0.457519
3471 1 148.074 8.85411 1.8162
3472 1 152.331 8.32194 0.47091
3473 1 157.636 9.40548 0.487608
3474 1 156.583 7.79241 1.84285
3475 1 160.76 7.29481 0.578179
3476 1 161.933 8.84634 1.89393
100 1 3.64457 11.1751 1.20086
101 1 8.97694 10.0597 1.15217
102 1 7.9107 11.6468 2.5192
103 1 13.2527 10.6012 2.51874
104 1 17.5139 11.133 1.17239
106 1 21.7753 11.668 2.53857
105 1 22.8397 10.0669 1.18519
107 1 27.1009 10.6021 2.55159
108 1 31.3606 11.1335 1.20594
109 1 35.6219 11.6687 2.57239
110 1 36.6862 10.0676 1.21895
111 1 40.9476 10.6029 2.5854
112 1 45.2073 11.1343 1.23976
113 1 49.4686 11.6695 2.60621
114 1 50.5329 10.0684 1.25276
115 1 54.7943 10.6037 2.61923
116 1 59.0543 11.1353 1.27352
117 1 64.3786 10.0695 1.28671
118 1 63.3159 11.6713 2.64046
119 1 68.6345 10.6019 2.65308
120 1 72.8736 11.1123 1.32091
3477 1 78.2663 9.96267 1.39382
3478 1 77.0786 11.5733 2.66505
3479 1 83.9768 9.76822 1.56437
3480 1 85.2611 11.3729 0.342886
3481 1 89.4943 10.9845 1.66479
3482 1 93.752 10.4649 0.327447
3483 1 98.0135 9.92952 1.69405
3484 1 99.0771 11.531 0.340407
3485 1 103.338 10.9951 1.70704
3486 1 107.598 10.4631 0.361261
3487 1 112.924 11.5283 0.374266
3488 1 111.859 9.92733 1.72781
3489 1 117.185 10.9925 1.74081
3490 1 121.445 10.4606 0.395073
3491 1 126.77 11.5258 0.408078
3492 1 125.706 9.92479 1.76162
3493 1 131.031 10.99 1.77462
3494 1 135.291 10.458 0.428878
3495 1 139.553 9.92222 1.79542
3496 1 140.617 11.5232 0.441837
3497 1 144.878 10.9874 1.80828
3498 1 149.137 10.4554 0.462006
3499 1 153.395 9.92323 1.82594
3500 1 154.459 11.5257 0.471569
3501 1 158.733 11.0022 1.81763
3502 1 162.914 10.4581 0.454176
121 1 1.47146 14.3514 1.12833
122 1 2.55715 12.802 2.54478
123 1 6.87708 13.2511 1.14839
124 1 11.1205 13.7941 2.51469
125 1 12.184 12.1952 1.15904
126 1 16.4487 12.7336 2.52582
127 1 15.3821 14.3299 1.16659
128 1 20.7092 13.2653 1.17996
129 1 26.035 12.1994 1.19295
130 1 24.9706 13.8005 2.54637
131 1 30.2963 12.7346 2.55938
132 1 29.2303 14.3319 1.20074
133 1 34.556 13.266 1.21374
134 1 39.8816 12.2001 1.22675
135 1 38.8173 13.8013 2.5802
136 1 43.077 14.3327 1.23455
137 1 44.1429 12.7354 2.5932
138 1 48.4027 13.2668 1.24756
139 1 52.664 13.8021 2.61401
140 1 53.7283 12.2009 1.26057
141 1 56.9237 14.3334 1.2684
142 1 57.9899 12.7363 2.62708
143 1 62.2503 13.2682 1.28129
144 1 66.5132 13.8057 2.64913
145 1 67.5739 12.2033 1.29491
146 1 71.8207 12.7329 2.66223
147 1 70.7722 14.3412 1.30157
3503 1 76.0079 13.2233 1.3465
3504 1 81.1342 12.1953 1.45907
3505 1 79.9421 13.7491 2.66764
3506 1 82.4403 13.6474 0.274537
3507 1 86.334 13.0696 1.62289
3508 1 90.5536 12.5936 0.315858
3509 1 91.6279 14.1886 1.67354
3510 1 95.8814 13.6645 0.331854
3511 1 94.8196 12.0616 1.68514
3512 1 100.143 13.1283 1.69919
3513 1 104.402 12.5961 0.353429
3514 1 105.468 14.1932 1.71219
3515 1 108.664 12.0603 1.72001
3516 1 109.728 13.6612 0.366461
3517 1 113.989 13.1255 1.73301
3518 1 118.249 12.5935 0.387271
3519 1 119.315 14.1907 1.74601
3520 1 122.51 12.0577 1.75382
3521 1 123.575 13.6587 0.400275
3522 1 127.836 13.1229 1.76682
3523 1 132.096 12.591 0.421081
3524 1 133.162 14.1881 1.77983
3525 1 136.357 12.0552 1.78763
3526 1 137.421 13.6562 0.434082
3527 1 141.683 13.1204 1.8006
3528 1 145.942 12.5885 0.454698
3529 1 147.008 14.186 1.81332
3530 1 150.202 12.054 1.8197
3531 1 151.267 13.6551 0.466832
3532 1 155.532 13.1211 1.82556
3533 1 159.816 12.5934 0.452415
3534 1 160.914 14.1772 1.80415
3535 1 164.091 12.0761 1.64361
3536 1 165.474 13.2987 0.0686893
148 1 0.794789 16.3902 2.03953
149 1 4.76883 16.4509 1.13218
150 1 5.82981 14.8595 2.49844
151 1 10.0636 15.3956 1.15402
152 1 14.3185 15.9309 2.5205
153 1 18.5785 16.4631 1.17449
154 1 19.6446 14.8662 2.53341
155 1 23.9046 15.3977 1.18772
156 1 28.166 15.933 2.55418
157 1 33.4916 14.8671 2.56719
158 1 32.4257 16.4644 1.20854
159 1 37.7514 15.3985 1.22155
160 1 42.0127 15.9338 2.588
161 1 47.3383 14.8679 2.601
162 1 46.2724 16.4652 1.24236
163 1 51.598 15.3993 1.25537
164 1 55.8593 15.9345 2.62179
165 1 60.1191 16.4658 1.27624
166 1 61.1855 14.8688 2.63492
167 1 65.4475 15.4015 1.28875
168 1 69.7145 15.9433 2.65747
169 1 73.9804 16.5006 1.29366
3537 1 74.9885 14.8801 2.66633
3538 1 79.0752 15.4297 1.27364
3539 1 82.9565 15.1107 2.07615
3540 1 87.3718 14.7364 0.316391
3541 1 88.4724 16.3203 1.65418
3542 1 92.6847 15.7987 0.323365
3543 1 96.9464 15.2616 1.69128
3544 1 101.207 14.7292 0.345502
3545 1 102.273 16.3261 1.70435
3546 1 106.533 15.7942 0.35865
3547 1 110.794 15.2584 1.7252
3548 1 115.054 14.7264 0.379468
3549 1 116.12 16.3236 1.73821
3550 1 120.379 15.7916 0.392472
3551 1 124.641 15.2559 1.75902
3552 1 128.9 14.7239 0.41328
3553 1 129.966 16.3211 1.77202
3554 1 134.226 15.7891 0.426287
3555 1 138.487 15.2533 1.79284
3556 1 142.747 14.7215 0.447125
3557 1 143.813 16.3187 1.80587
3558 1 148.073 15.7871 0.460387
3559 1 152.335 15.2508 1.82609
3560 1 156.607 14.7143 0.470587
3561 1 157.672 16.2998 1.84325
3562 1 162.027 15.7089 0.413509
170 1 1.22073 17.9619 0.233868
171 1 3.77867 18.1126 2.48874
172 1 7.94024 18.6075 1.14943
173 1 9.00526 17.0041 2.50406
174 1 13.2555 17.5298 1.16134
175 1 12.1928 19.1338 2.51284
176 1 17.5147 18.0644 2.52808
177 1 21.7743 18.596 1.18245
178 1 22.8402 16.9988 2.54118
179 1 26.0357 19.1313 2.54899
180 1 27.1 17.5303 1.19553
181 1 31.3614 18.0655 2.56199
182 1 35.6211 18.5969 1.21635
183 1 36.687 16.9997 2.57499
184 1 39.8824 19.1322 2.5828
185 1 40.9468 17.5311 1.22935
186 1 45.2081 18.0663 2.5958
187 1 49.4678 18.5978 1.25016
188 1 50.5337 17.0005 2.60881
189 1 54.7934 17.5318 1.26318
190 1 53.7291 19.133 2.61661
191 1 59.0545 18.0669 2.62951
192 1 63.314 18.5977 1.28405
193 1 64.3813 17.0011 2.64247
194 1 68.6471 17.5355 1.2948
195 1 67.5768 19.132 2.64912
196 1 72.9287 18.0907 2.6648
3563 1 77.2533 18.7082 1.25242
3564 1 78.1766 17.0867 2.65571
3565 1 81.6355 18.9631 2.54741
3566 1 82.3995 17.1926 1.13692
3567 1 85.3185 18.5628 1.71998
3568 1 89.4912 17.9524 0.309492
3569 1 93.7488 17.3959 1.68372
3570 1 94.8154 18.9951 0.330293
3571 1 98.0111 16.8622 0.33758
3572 1 99.0775 18.4589 1.69654
3573 1 103.337 17.9271 0.350855
3574 1 107.599 17.3913 1.71739
3575 1 108.663 18.9923 0.363864
3576 1 111.858 16.8594 0.371665
3577 1 112.924 18.4565 1.73041
3578 1 117.184 17.9246 0.384669
3579 1 122.51 18.9898 0.397674
3580 1 121.445 17.3888 1.75122
3581 1 125.705 16.8568 0.405477
3582 1 126.771 18.454 1.76422
3583 1 131.031 17.922 0.418483
3584 1 136.356 18.9873 0.431497
3585 1 135.292 17.3863 1.78503
3586 1 139.552 16.8544 0.439327
3587 1 140.618 18.4515 1.79806
3588 1 144.877 17.9197 0.452514
3589 1 149.139 17.3834 1.81969
3590 1 150.204 18.9839 0.466372
3591 1 153.403 16.8497 0.474167
3592 1 154.468 18.4427 1.83962
3593 1 158.738 17.8938 0.494961
3594 1 162.896 17.3594 1.83963
3595 1 163.936 19.1128 0.725123
197 1 1.35079 21.2369 2.28723
198 1 2.61557 19.6425 1.11404
199 1 6.86976 20.2287 2.4785
200 1 11.1247 20.7321 1.15608
201 1 16.4496 19.6622 1.16943
202 1 15.3859 21.2641 2.52258
203 1 20.7102 20.1972 2.53597
204 1 24.9698 20.7286 1.19032
205 1 30.2954 19.6628 1.20334
206 1 29.2311 21.2639 2.55679
207 1 34.5568 20.1981 2.56979
208 1 38.8165 20.7295 1.22415
209 1 43.0778 21.2647 2.5906
210 1 44.1421 19.6636 1.23715
211 1 48.4035 20.1989 2.60361
212 1 52.6632 20.7303 1.25795
213 1 56.9245 21.2656 2.62441
214 1 57.9886 19.6644 1.27098
215 1 62.2493 20.199 2.63708
216 1 66.5073 20.7285 1.29215
217 1 71.8508 19.6703 1.299
218 1 70.7704 21.2589 2.65542
3596 1 76.1965 20.2437 2.68069
3597 1 80.7838 20.8098 1.29116
3598 1 86.2528 20.1856 0.31627
3599 1 90.5466 19.5396 1.68422
3600 1 91.6208 21.1288 0.326584
3601 1 95.8823 20.5915 1.68926
3602 1 100.142 20.0598 0.343206
3603 1 101.208 21.657 1.70183
3604 1 105.468 21.1252 0.356083
3605 1 104.403 19.5242 1.70958
3606 1 109.729 20.5895 1.72261
3607 1 113.989 20.0575 0.376866
3608 1 115.055 21.6547 1.73561
3609 1 119.314 21.1227 0.389871
3610 1 118.25 19.5217 1.74341
3611 1 123.576 20.5869 1.75642
3612 1 127.835 20.055 0.410679
3613 1 128.901 21.6521 1.76942
3614 1 132.097 19.5192 1.77722
3615 1 133.161 21.1202 0.423684
3616 1 137.422 20.5844 1.79023
3617 1 141.682 20.0525 0.444526
3618 1 142.748 21.6495 1.80326
3619 1 145.944 19.5165 1.81135
3620 1 147.008 21.1172 0.457519
3621 1 151.27 20.5802 1.82606
3622 1 155.526 20.0463 0.487271
3623 1 156.583 21.6527 1.84285
3624 1 160.76 21.1551 0.578179
3625 1 159.746 19.5017 1.89283
3626 1 165.103 20.1305 2.60539
219 1 0.391147 23.0312 1.04533
220 1 4.65404 23.3736 2.51967
221 1 5.73799 21.8033 1.12792
222 1 8.97694 23.92 1.15217
223 1 10.0577 22.3329 2.50916
224 1 14.3189 22.8616 1.165
225 1 18.5802 23.396 2.53076
226 1 19.6445 21.7947 1.17743
227 1 23.9055 22.3298 2.54379
228 1 22.8397 23.9271 1.18519
229 1 28.1652 22.8612 1.19814
230 1 33.4908 21.7953 1.21114
231 1 32.4265 23.3965 2.56459
232 1 37.7522 22.3306 2.57759
233 1 36.6862 23.9279 1.21895
234 1 42.0119 22.862 1.23195
235 1 47.3375 21.7962 1.24496
236 1 46.2732 23.3973 2.5984
237 1 50.5329 23.9287 1.25276
238 1 51.5989 22.3314 2.61141
239 1 55.8587 22.8629 1.26574
240 1 60.12 23.3983 2.63229
241 1 61.1837 21.7969 1.27877
242 1 64.3786 23.9297 1.28671
243 1 65.443 22.3308 2.64465
244 1 69.6961 22.856 1.30258
245 1 73.9557 23.3669 2.66362
3627 1 75.066 21.7872 1.31531
3628 1 78.2663 23.8229 1.39382
4312 1 79.5723 22.3158 2.71798
3629 1 82.5715 22.1481 0.205173
3630 1 83.9768 23.6285 1.56437
3631 1 87.3213 21.7035 1.71161
3632 1 88.4134 23.2479 0.315509
3633 1 92.6893 22.7245 1.68279
3634 1 96.9473 22.1924 0.335926
3635 1 98.0135 23.7898 1.69405
3636 1 102.272 23.2582 0.348331
3637 1 106.534 22.7224 1.71482
3638 1 110.793 22.1905 0.369064
3639 1 111.859 23.7876 1.72781
3640 1 116.119 23.2557 0.382069
3641 1 120.38 22.7199 1.74861
3642 1 124.64 22.1879 0.402876
3643 1 125.706 23.7851 1.76162
3644 1 129.966 23.2531 0.415881
3645 1 134.227 22.7173 1.78242
3646 1 138.487 22.1854 0.436677
3647 1 139.553 23.7825 1.79542
3648 1 143.812 23.2504 0.449557
3649 1 148.074 22.7144 1.8162
3650 1 152.331 22.1822 0.47091
3651 1 153.395 23.7835 1.82594
3652 1 157.636 23.2658 0.487608
3653 1 161.933 22.7066 1.89393
246 1 3.64457 25.0353 1.20086
247 1 7.9107 25.507 2.5192
248 1 13.2527 24.4615 2.51874
249 1 12.184 26.0555 1.15904
250 1 17.5139 24.9933 1.17239
251 1 21.7753 25.5283 2.53857
252 1 26.035 26.0596 1.19295
253 1 27.1009 24.4623 2.55159
254 1 31.3606 24.9937 1.20594
255 1 35.6219 25.529 2.57239
256 1 39.8816 26.0604 1.22675
257 1 40.9476 24.4631 2.5854
258 1 45.2073 24.9945 1.23976
259 1 49.4686 25.5298 2.60621
260 1 54.7943 24.464 2.61923
261 1 53.7283 26.0612 1.26057
262 1 59.0543 24.9956 1.27352
263 1 63.3159 25.5315 2.64046
264 1 68.6345 24.4622 2.65308
265 1 67.5739 26.0636 1.29491
266 1 72.8736 24.9726 1.32091
3654 1 77.0786 25.4336 2.66505
3655 1 81.1342 26.0556 1.45907
3656 1 85.2611 25.2332 0.342886
3657 1 89.4943 24.8448 1.66479
3658 1 90.5536 26.4539 0.315858
3659 1 93.752 24.3251 0.327447
3660 1 94.8196 25.9219 1.68514
3661 1 99.0771 25.3913 0.340407
3662 1 103.338 24.8554 1.70704
3663 1 104.402 26.4564 0.353429
3664 1 107.598 24.3234 0.361261
3665 1 108.664 25.9205 1.72001
3666 1 112.924 25.3886 0.374266
3667 1 117.185 24.8528 1.74081
3668 1 118.249 26.4538 0.387271
3669 1 121.445 24.3209 0.395073
3670 1 122.51 25.918 1.75382
3671 1 126.77 25.3861 0.408078
3672 1 132.096 26.4513 0.421081
3673 1 131.031 24.8503 1.77462
3674 1 135.291 24.3183 0.428878
3675 1 136.357 25.9154 1.78763
3676 1 140.617 25.3835 0.441837
3677 1 145.942 26.4488 0.454698
3678 1 144.878 24.8476 1.80828
3679 1 149.137 24.3157 0.462006
3680 1 150.202 25.9143 1.8197
3681 1 154.459 25.386 0.471569
3682 1 158.733 24.8625 1.81763
3683 1 159.816 26.4537 0.452415
3684 1 162.914 24.3184 0.454176
3685 1 164.091 25.9363 1.64361
267 1 1.47146 28.2117 1.12833
268 1 2.55715 26.6623 2.54478
269 1 6.87708 27.1114 1.14839
270 1 5.82981 28.7198 2.49844
271 1 11.1205 27.6544 2.51469
272 1 15.3821 28.1902 1.16659
273 1 16.4487 26.5939 2.52582
274 1 20.7092 27.1255 1.17996
275 1 19.6446 28.7264 2.53341
276 1 24.9706 27.6608 2.54637
277 1 29.2303 28.1921 1.20074
278 1 30.2963 26.5949 2.55938
279 1 33.4916 28.7274 2.56719
280 1 34.556 27.1263 1.21374
281 1 38.8173 27.6615 2.5802
282 1 43.077 28.1929 1.23455
283 1 44.1429 26.5957 2.5932
284 1 47.3383 28.7282 2.601
285 1 48.4027 27.1271 1.24756
286 1 52.664 27.6623 2.61401
287 1 56.9237 28.1937 1.2684
288 1 57.9899 26.5966 2.62708
289 1 62.2503 27.1285 1.28129
290 1 61.1855 28.7291 2.63492
291 1 66.5132 27.666 2.64913
292 1 70.7722 28.2015 1.30157
293 1 71.8207 26.5932 2.66223
3686 1 76.0079 27.0836 1.3465
3687 1 74.9885 28.7403 2.66633
3688 1 79.9421 27.6094 2.66764
3689 1 82.4403 27.5076 0.274537
3690 1 86.334 26.9299 1.62289
3691 1 87.3718 28.5966 0.316391
3692 1 91.6279 28.0489 1.67354
3693 1 95.8814 27.5247 0.331854
3694 1 100.143 26.9886 1.69919
3695 1 101.207 28.5894 0.345502
3696 1 105.468 28.0535 1.71219
3697 1 109.728 27.5215 0.366461
3698 1 115.054 28.5867 0.379468
3699 1 113.989 26.9857 1.73301
3700 1 119.315 28.0509 1.74601
3701 1 123.575 27.519 0.400275
3702 1 128.9 28.5842 0.41328
3703 1 127.836 26.9832 1.76682
3704 1 133.162 28.0484 1.77983
3705 1 137.421 27.5164 0.434082
3706 1 141.683 26.9806 1.8006
3707 1 142.747 28.5817 0.447125
3708 1 147.008 28.0463 1.81332
3709 1 151.267 27.5154 0.466832
3710 1 155.532 26.9814 1.82556
3711 1 156.607 28.5746 0.470587
3712 1 160.914 28.0375 1.80415
3713 1 165.474 27.159 0.0686893
294 1 0.794789 30.2504 2.03953
295 1 4.76883 30.3112 1.13218
296 1 9.00526 30.8644 2.50406
297 1 10.0636 29.2559 1.15402
298 1 14.3185 29.7912 2.5205
299 1 18.5785 30.3234 1.17449
300 1 23.9046 29.258 1.18772
301 1 22.8402 30.859 2.54118
302 1 28.166 29.7933 2.55418
303 1 32.4257 30.3247 1.20854
304 1 37.7514 29.2588 1.22155
305 1 36.687 30.8599 2.57499
306 1 42.0127 29.7941 2.588
307 1 46.2724 30.3255 1.24236
308 1 50.5337 30.8607 2.60881
309 1 51.598 29.2596 1.25537
310 1 55.8593 29.7948 2.62179
311 1 60.1191 30.3261 1.27624
312 1 64.3813 30.8613 2.64247
313 1 65.4475 29.2618 1.28875
314 1 69.7145 29.8035 2.65747
315 1 73.9804 30.3608 1.29366
3714 1 79.0752 29.29 1.27364
3715 1 78.1766 30.947 2.65571
3716 1 82.3995 31.0528 1.13692
3717 1 82.9565 28.971 2.07615
3718 1 88.4724 30.1806 1.65418
3719 1 92.6847 29.659 0.323365
3720 1 93.7488 31.2562 1.68372
3721 1 98.0111 30.7224 0.33758
3722 1 96.9464 29.1219 1.69128
3723 1 102.273 30.1864 1.70435
3724 1 106.533 29.6544 0.35865
3725 1 107.599 31.2516 1.71739
3726 1 111.858 30.7197 0.371665
3727 1 110.794 29.1187 1.7252
3728 1 116.12 30.1839 1.73821
3729 1 120.379 29.6519 0.392472
3730 1 121.445 31.2491 1.75122
3731 1 124.641 29.1161 1.75902
3732 1 125.705 30.7171 0.405477
3733 1 129.966 30.1813 1.77202
3734 1 134.226 29.6494 0.426287
3735 1 135.292 31.2465 1.78503
3736 1 139.552 30.7146 0.439327
3737 1 138.487 29.1136 1.79284
3738 1 143.813 30.1789 1.80587
3739 1 148.073 29.6474 0.460387
3740 1 149.139 31.2437 1.81969
3741 1 153.403 30.71 0.474167
3742 1 152.335 29.1111 1.82609
3743 1 157.672 30.1601 1.84325
3744 1 162.027 29.5692 0.413509
3745 1 162.896 31.2196 1.83963
316 1 1.22073 31.8222 0.233868
317 1 3.77867 31.9728 2.48874
318 1 2.61557 33.5028 1.11404
319 1 7.94024 32.4677 1.14943
320 1 13.2555 31.3901 1.16134
321 1 12.1928 32.9941 2.51284
322 1 16.4496 33.5225 1.16943
323 1 17.5147 31.9246 2.52808
324 1 21.7743 32.4562 1.18245
325 1 26.0357 32.9916 2.54899
326 1 27.1 31.3905 1.19553
327 1 30.2954 33.5231 1.20334
328 1 31.3614 31.9258 2.56199
329 1 35.6211 32.4572 1.21635
330 1 39.8824 32.9925 2.5828
331 1 40.9468 31.3913 1.22935
332 1 45.2081 31.9266 2.5958
333 1 44.1421 33.5239 1.23715
334 1 49.4678 32.458 1.25016
335 1 54.7934 31.3921 1.26318
336 1 53.7291 32.9933 2.61661
337 1 59.0545 31.9272 2.62951
338 1 57.9886 33.5246 1.27098
339 1 63.314 32.458 1.28405
340 1 68.6471 31.3958 1.2948
341 1 67.5768 32.9923 2.64912
342 1 71.8508 33.5305 1.299
343 1 72.9287 31.951 2.6648
3746 1 77.2533 32.5685 1.25242
3747 1 81.6355 32.8234 2.54741
3748 1 85.3185 32.4231 1.71998
3749 1 89.4912 31.8126 0.309492
3750 1 90.5466 33.3999 1.68422
3751 1 94.8154 32.8553 0.330293
3752 1 99.0775 32.3192 1.69654
3753 1 103.337 31.7873 0.350855
3754 1 104.403 33.3845 1.70958
3755 1 108.663 32.8526 0.363864
3756 1 112.924 32.3168 1.73041
3757 1 117.184 31.7849 0.384669
3758 1 118.25 33.382 1.74341
3759 1 122.51 32.8501 0.397674
3760 1 126.771 32.3143 1.76422
3761 1 131.031 31.7823 0.418483
3762 1 132.097 33.3795 1.77722
3763 1 136.356 32.8475 0.431497
3764 1 140.618 32.3118 1.79806
3765 1 144.877 31.7799 0.452514
3766 1 145.944 33.3768 1.81135
3767 1 150.204 32.8441 0.466372
3768 1 154.468 32.3029 1.83962
3769 1 158.738 31.754 0.494961
3770 1 159.746 33.3619 1.89283
3771 1 163.936 32.9731 0.725123
344 1 1.35079 35.0971 2.28723
345 1 6.86976 34.0889 2.4785
346 1 5.73799 35.6635 1.12792
347 1 11.1247 34.5924 1.15608
348 1 15.3859 35.1244 2.52258
349 1 20.7102 34.0574 2.53597
350 1 19.6445 35.655 1.17743
351 1 24.9698 34.5889 1.19032
352 1 29.2311 35.1242 2.55679
353 1 33.4908 35.6556 1.21114
354 1 34.5568 34.0583 2.56979
355 1 38.8165 34.5897 1.22415
356 1 43.0778 35.125 2.5906
357 1 47.3375 35.6564 1.24496
358 1 48.4035 34.0592 2.60361
359 1 52.6632 34.5906 1.25795
360 1 56.9245 35.1259 2.62441
361 1 62.2493 34.0593 2.63708
362 1 61.1837 35.6572 1.27877
363 1 66.5073 34.5888 1.29215
364 1 70.7704 35.1192 2.65542
3772 1 76.1965 34.104 2.68069
3773 1 75.066 35.6474 1.31531
3774 1 80.7838 34.6701 1.29116
3775 1 82.5715 36.0084 0.205173
3776 1 86.2528 34.0458 0.31627
3777 1 87.3213 35.5638 1.71161
3778 1 91.6208 34.989 0.326584
3779 1 95.8823 34.4518 1.68926
3780 1 96.9473 36.0527 0.335926
3781 1 100.142 33.9201 0.343206
3782 1 101.208 35.5173 1.70183
3783 1 105.468 34.9855 0.356083
3784 1 109.729 34.4497 1.72261
3785 1 110.793 36.0507 0.369064
3786 1 113.989 33.9178 0.376866
3787 1 115.055 35.5149 1.73561
3788 1 119.314 34.983 0.389871
3789 1 124.64 36.0482 0.402876
3790 1 123.576 34.4472 1.75642
3791 1 127.835 33.9153 0.410679
3792 1 128.901 35.5124 1.76942
3793 1 133.161 34.9805 0.423684
3794 1 138.487 36.0457 0.436677
3795 1 137.422 34.4447 1.79023
3796 1 141.682 33.9127 0.444526
3797 1 142.748 35.5098 1.80326
3798 1 147.008 34.9775 0.457519
3799 1 151.27 34.4405 1.82606
3800 1 152.331 36.0425 0.47091
3801 1 155.526 33.9065 0.487271
3802 1 156.583 35.513 1.84285
3803 1 160.76 35.0154 0.578179
3804 1 165.103 33.9908 2.60539
365 1 0.391147 36.8915 1.04533
366 1 4.65404 37.2338 2.51967
367 1 8.97694 37.7803 1.15217
368 1 10.0577 36.1932 2.50916
369 1 14.3189 36.7218 1.165
370 1 13.2527 38.3217 2.51874
371 1 18.5802 37.2563 2.53076
372 1 22.8397 37.7874 1.18519
373 1 23.9055 36.19 2.54379
374 1 28.1652 36.7215 1.19814
375 1 27.1009 38.3226 2.55159
376 1 32.4265 37.2567 2.56459
377 1 36.6862 37.7881 1.21895
378 1 37.7522 36.1909 2.57759
379 1 40.9476 38.3234 2.5854
380 1 42.0119 36.7223 1.23195
381 1 46.2732 37.2575 2.5984
382 1 50.5329 37.789 1.25276
383 1 51.5989 36.1917 2.61141
384 1 54.7943 38.3243 2.61923
385 1 55.8587 36.7232 1.26574
386 1 60.12 37.2586 2.63229
387 1 64.3786 37.79 1.28671
388 1 65.443 36.1911 2.64465
389 1 69.6961 36.7163 1.30258
390 1 68.6345 38.3224 2.65308
391 1 73.9557 37.2272 2.66362
3805 1 78.2663 37.6832 1.39382
4492 1 79.5723 36.1761 2.71798
3806 1 83.9768 37.4888 1.56437
3807 1 88.4134 37.1082 0.315509
3808 1 92.6893 36.5847 1.68279
3809 1 93.752 38.1854 0.327447
3810 1 98.0135 37.6501 1.69405
3811 1 102.272 37.1184 0.348331
3812 1 107.598 38.1837 0.361261
3813 1 106.534 36.5827 1.71482
3814 1 111.859 37.6479 1.72781
3815 1 116.119 37.1159 0.382069
3816 1 121.445 38.1811 0.395073
3817 1 120.38 36.5801 1.74861
3818 1 125.706 37.6453 1.76162
3819 1 129.966 37.1134 0.415881
3820 1 134.227 36.5776 1.78242
3821 1 135.291 38.1786 0.428878
3822 1 139.553 37.6428 1.79542
3823 1 143.812 37.1107 0.449557
3824 1 149.137 38.176 0.462006
3825 1 148.074 36.5747 1.8162
3826 1 153.395 37.6438 1.82594
3827 1 157.636 37.126 0.487608
3828 1 162.914 38.1787 0.454176
3829 1 161.933 36.5669 1.89393
392 1 3.64457 38.8956 1.20086
393 1 2.55715 40.5225 2.54478
394 1 7.9107 39.3673 2.5192
395 1 12.184 39.9158 1.15904
396 1 16.4487 40.4541 2.52582
397 1 17.5139 38.8535 1.17239
398 1 21.7753 39.3886 2.53857
399 1 26.035 39.9199 1.19295
400 1 30.2963 40.4551 2.55938
401 1 31.3606 38.854 1.20594
402 1 35.6219 39.3893 2.57239
403 1 39.8816 39.9207 1.22675
404 1 45.2073 38.8548 1.23976
405 1 44.1429 40.4559 2.5932
406 1 49.4686 39.3901 2.60621
407 1 53.7283 39.9215 1.26057
408 1 59.0543 38.8559 1.27352
409 1 57.9899 40.4568 2.62708
410 1 63.3159 39.3918 2.64046
411 1 67.5739 39.9239 1.29491
412 1 71.8207 40.4535 2.66223
413 1 72.8736 38.8328 1.32091
3862 1 76.0079 40.9439 1.3465
3830 1 77.0786 39.2938 2.66505
3831 1 81.1342 39.9158 1.45907
3832 1 85.2611 39.0934 0.342886
3833 1 86.334 40.7901 1.62289
3834 1 89.4943 38.705 1.66479
3835 1 90.5536 40.3141 0.315858
3836 1 94.8196 39.7821 1.68514
3837 1 99.0771 39.2515 0.340407
3838 1 100.143 40.8488 1.69919
3839 1 103.338 38.7157 1.70704
3840 1 104.402 40.3167 0.353429
3841 1 108.664 39.7808 1.72001
3842 1 112.924 39.2489 0.374266
3843 1 113.989 40.846 1.73301
3844 1 117.185 38.7131 1.74081
3845 1 118.249 40.3141 0.387271
3846 1 122.51 39.7783 1.75382
3847 1 126.77 39.2463 0.408078
3848 1 127.836 40.8435 1.76682
3849 1 132.096 40.3115 0.421081
3850 1 131.031 38.7105 1.77462
3851 1 136.357 39.7757 1.78763
3852 1 140.617 39.2437 0.441837
3853 1 141.683 40.8409 1.8006
3854 1 145.942 40.3091 0.454698
3855 1 144.878 38.7079 1.80828
3856 1 150.202 39.7745 1.8197
3857 1 154.459 39.2463 0.471569
3858 1 155.532 40.8417 1.82556
3859 1 158.733 38.7227 1.81763
3860 1 159.816 40.314 0.452415
3861 1 164.091 39.7966 1.64361
414 1 1.47146 42.072 1.12833
415 1 6.87708 40.9717 1.14839
416 1 5.82981 42.5801 2.49844
417 1 11.1205 41.5146 2.51469
418 1 10.0636 43.1162 1.15402
419 1 15.3821 42.0505 1.16659
420 1 20.7092 40.9858 1.17996
421 1 19.6446 42.5867 2.53341
422 1 23.9046 43.1183 1.18772
423 1 24.9706 41.521 2.54637
424 1 29.2303 42.0524 1.20074
425 1 33.4916 42.5877 2.56719
426 1 34.556 40.9865 1.21374
427 1 37.7514 43.1191 1.22155
428 1 38.8173 41.5218 2.5802
429 1 43.077 42.0532 1.23455
430 1 47.3383 42.5885 2.601
431 1 48.4027 40.9874 1.24756
432 1 52.664 41.5226 2.61401
433 1 51.598 43.1199 1.25537
434 1 56.9237 42.054 1.2684
435 1 62.2503 40.9888 1.28129
436 1 61.1855 42.5894 2.63492
437 1 66.5132 41.5262 2.64913
438 1 65.4475 43.1221 1.28875
439 1 70.7722 42.0618 1.30157
3863 1 74.9885 42.6006 2.66633
3864 1 79.0752 43.1502 1.27364
3865 1 79.9421 41.4696 2.66764
3866 1 82.4403 41.3679 0.274537
3867 1 82.9565 42.8313 2.07615
3868 1 87.3718 42.4569 0.316391
3869 1 91.6279 41.9092 1.67354
3870 1 95.8814 41.385 0.331854
3871 1 96.9464 42.9822 1.69128
3872 1 101.207 42.4497 0.345502
3873 1 105.468 41.9138 1.71219
3874 1 109.728 41.3818 0.366461
3875 1 110.794 42.9789 1.7252
3876 1 115.054 42.447 0.379468
3877 1 119.315 41.9112 1.74601
3878 1 123.575 41.3793 0.400275
3879 1 124.641 42.9764 1.75902
3880 1 128.9 42.4445 0.41328
3881 1 133.162 41.9087 1.77983
3882 1 137.421 41.3767 0.434082
3883 1 138.487 42.9739 1.79284
3884 1 142.747 42.442 0.447125
3885 1 147.008 41.9066 1.81332
3886 1 151.267 41.3757 0.466832
3887 1 152.335 42.9713 1.82609
3888 1 156.607 42.4349 0.470587
3889 1 160.914 41.8978 1.80415
3890 1 165.474 41.0192 0.0686893
440 1 0.794789 44.1107 2.03953
441 1 1.22073 45.6825 0.233868
442 1 4.76883 44.1715 1.13218
443 1 9.00526 44.7246 2.50406
444 1 14.3185 43.6514 2.5205
445 1 13.2555 45.2504 1.16134