Crystalline Cu atoms

1584 atoms
1 atom types
-10.0 50.0 xlo xhi
0.0 21.240000000000002 ylo yhi
0.0 21.240000000000002 zlo zhi

Atom Type Labels

1 Cu

Atoms

1 Cu 1.769999999999993 1.769999999999993 3.539999999999992
2 Cu 1.769999999999993 1.769999999999993 7.079999999999991
3 Cu 1.769999999999993 1.769999999999993 10.61999999999999
4 Cu 1.769999999999993 1.769999999999993 14.15999999999999
5 Cu 1.769999999999993 1.769999999999993 17.69999999999999
6 Cu 1.769999999999993 1.769999999999993 21.239999999999988
7 Cu 3.539999999999992 1.769999999999993 1.769999999999993
8 Cu 3.539999999999992 1.769999999999993 5.309999999999992
9 Cu 5.309999999999992 1.769999999999993 3.539999999999992
10 Cu 3.539999999999992 1.769999999999993 8.84999999999999
11 Cu 5.309999999999992 1.769999999999993 7.079999999999991
12 Cu 3.539999999999992 1.769999999999993 12.38999999999999
13 Cu 5.309999999999992 1.769999999999993 10.61999999999999
14 Cu 3.539999999999992 1.769999999999993 15.929999999999989
15 Cu 5.309999999999992 1.769999999999993 14.15999999999999
16 Cu 3.539999999999992 1.769999999999993 19.469999999999988
17 Cu 5.309999999999992 1.769999999999993 17.69999999999999
18 Cu 5.309999999999992 1.769999999999993 21.239999999999988
19 Cu 7.079999999999991 1.769999999999993 1.769999999999993
20 Cu 7.079999999999991 1.769999999999993 5.309999999999992
21 Cu 8.84999999999999 1.769999999999993 3.539999999999992
22 Cu 7.079999999999991 1.769999999999993 8.84999999999999
23 Cu 8.84999999999999 1.769999999999993 7.079999999999991
24 Cu 7.079999999999991 1.769999999999993 12.38999999999999
25 Cu 8.84999999999999 1.769999999999993 10.61999999999999
26 Cu 7.079999999999991 1.769999999999993 15.929999999999989
27 Cu 8.84999999999999 1.769999999999993 14.15999999999999
28 Cu 7.079999999999991 1.769999999999993 19.469999999999988
29 Cu 8.84999999999999 1.769999999999993 17.69999999999999
30 Cu 8.84999999999999 1.769999999999993 21.239999999999988
31 Cu 10.61999999999999 1.769999999999993 1.769999999999993
32 Cu 10.61999999999999 1.769999999999993 5.309999999999992
33 Cu 12.38999999999999 1.769999999999993 3.539999999999992
34 Cu 10.61999999999999 1.769999999999993 8.84999999999999
35 Cu 12.38999999999999 1.769999999999993 7.079999999999991
36 Cu 10.61999999999999 1.769999999999993 12.38999999999999
37 Cu 12.38999999999999 1.769999999999993 10.61999999999999
38 Cu 10.61999999999999 1.769999999999993 15.929999999999989
39 Cu 12.38999999999999 1.769999999999993 14.15999999999999
40 Cu 10.61999999999999 1.769999999999993 19.469999999999988
41 Cu 12.38999999999999 1.769999999999993 17.69999999999999
42 Cu 12.38999999999999 1.769999999999993 21.239999999999988
43 Cu 14.15999999999999 1.769999999999993 1.769999999999993
44 Cu 14.15999999999999 1.769999999999993 5.309999999999992
45 Cu 15.929999999999989 1.769999999999993 3.539999999999992
46 Cu 14.15999999999999 1.769999999999993 8.84999999999999
47 Cu 15.929999999999989 1.769999999999993 7.079999999999991
48 Cu 14.15999999999999 1.769999999999993 12.38999999999999
49 Cu 15.929999999999989 1.769999999999993 10.61999999999999
50 Cu 14.15999999999999 1.769999999999993 15.929999999999989
51 Cu 15.929999999999989 1.769999999999993 14.15999999999999
52 Cu 14.15999999999999 1.769999999999993 19.469999999999988
53 Cu 15.929999999999989 1.769999999999993 17.69999999999999
54 Cu 15.929999999999989 1.769999999999993 21.239999999999988
55 Cu 17.69999999999999 1.769999999999993 1.769999999999993
56 Cu 17.69999999999999 1.769999999999993 5.309999999999992
57 Cu 19.469999999999988 1.769999999999993 3.539999999999992
58 Cu 17.69999999999999 1.769999999999993 8.84999999999999
59 Cu 19.469999999999988 1.769999999999993 7.079999999999991
60 Cu 17.69999999999999 1.769999999999993 12.38999999999999
61 Cu 19.469999999999988 1.769999999999993 10.61999999999999
62 Cu 17.69999999999999 1.769999999999993 15.929999999999989
63 Cu 19.469999999999988 1.769999999999993 14.15999999999999
64 Cu 17.69999999999999 1.769999999999993 19.469999999999988
65 Cu 19.469999999999988 1.769999999999993 17.69999999999999
66 Cu 19.469999999999988 1.769999999999993 21.239999999999988
67 Cu 1.769999999999993 3.539999999999992 1.769999999999993
68 Cu 1.769999999999993 3.539999999999992 5.309999999999992
69 Cu 1.769999999999993 5.309999999999992 3.539999999999992
70 Cu 1.769999999999993 3.539999999999992 8.84999999999999
71 Cu 1.769999999999993 5.309999999999992 7.079999999999991
72 Cu 1.769999999999993 3.539999999999992 12.38999999999999
73 Cu 1.769999999999993 5.309999999999992 10.61999999999999
74 Cu 1.769999999999993 3.539999999999992 15.929999999999989
75 Cu 1.769999999999993 5.309999999999992 14.15999999999999
76 Cu 1.769999999999993 3.539999999999992 19.469999999999988
77 Cu 1.769999999999993 5.309999999999992 17.69999999999999
78 Cu 1.769999999999993 5.309999999999992 21.239999999999988
79 Cu 3.539999999999992 5.309999999999992 1.769999999999993
80 Cu 5.309999999999992 3.539999999999992 1.769999999999993
81 Cu 3.539999999999992 3.539999999999992 3.539999999999992
82 Cu 3.539999999999992 5.309999999999992 5.309999999999992
83 Cu 5.309999999999992 3.539999999999992 5.309999999999992
84 Cu 5.309999999999992 5.309999999999992 3.539999999999992
85 Cu 3.539999999999992 3.539999999999992 7.079999999999991
86 Cu 3.539999999999992 5.309999999999992 8.84999999999999
87 Cu 5.309999999999992 3.539999999999992 8.84999999999999
88 Cu 5.309999999999992 5.309999999999992 7.079999999999991
89 Cu 3.539999999999992 3.539999999999992 10.61999999999999
90 Cu 3.539999999999992 5.309999999999992 12.38999999999999
91 Cu 5.309999999999992 3.539999999999992 12.38999999999999
92 Cu 5.309999999999992 5.309999999999992 10.61999999999999
93 Cu 3.539999999999992 3.539999999999992 14.15999999999999
94 Cu 3.539999999999992 5.309999999999992 15.929999999999989
95 Cu 5.309999999999992 3.539999999999992 15.929999999999989
96 Cu 5.309999999999992 5.309999999999992 14.15999999999999
97 Cu 3.539999999999992 3.539999999999992 17.69999999999999
98 Cu 3.539999999999992 5.309999999999992 19.469999999999988
99 Cu 5.309999999999992 3.539999999999992 19.469999999999988
100 Cu 5.309999999999992 5.309999999999992 17.69999999999999
101 Cu 3.539999999999992 3.539999999999992 21.239999999999988
102 Cu 5.309999999999992 5.309999999999992 21.239999999999988
103 Cu 7.079999999999991 5.309999999999992 1.769999999999993
104 Cu 8.84999999999999 3.539999999999992 1.769999999999993
105 Cu 7.079999999999991 3.539999999999992 3.539999999999992
106 Cu 7.079999999999991 5.309999999999992 5.309999999999992
107 Cu 8.84999999999999 3.539999999999992 5.309999999999992
108 Cu 8.84999999999999 5.309999999999992 3.539999999999992
109 Cu 7.079999999999991 3.539999999999992 7.079999999999991
110 Cu 7.079999999999991 5.309999999999992 8.84999999999999
111 Cu 8.84999999999999 3.539999999999992 8.84999999999999
112 Cu 8.84999999999999 5.309999999999992 7.079999999999991
113 Cu 7.079999999999991 3.539999999999992 10.61999999999999
114 Cu 7.079999999999991 5.309999999999992 12.38999999999999
115 Cu 8.84999999999999 3.539999999999992 12.38999999999999
116 Cu 8.84999999999999 5.309999999999992 10.61999999999999
117 Cu 7.079999999999991 3.539999999999992 14.15999999999999
118 Cu 7.079999999999991 5.309999999999992 15.929999999999989
119 Cu 8.84999999999999 3.539999999999992 15.929999999999989
120 Cu 8.84999999999999 5.309999999999992 14.15999999999999
121 Cu 7.079999999999991 3.539999999999992 17.69999999999999
122 Cu 7.079999999999991 5.309999999999992 19.469999999999988
123 Cu 8.84999999999999 3.539999999999992 19.469999999999988
124 Cu 8.84999999999999 5.309999999999992 17.69999999999999
125 Cu 7.079999999999991 3.539999999999992 21.239999999999988
126 Cu 8.84999999999999 5.309999999999992 21.239999999999988
127 Cu 10.61999999999999 5.309999999999992 1.769999999999993
128 Cu 12.38999999999999 3.539999999999992 1.769999999999993
129 Cu 10.61999999999999 3.539999999999992 3.539999999999992
130 Cu 10.61999999999999 5.309999999999992 5.309999999999992
131 Cu 12.38999999999999 3.539999999999992 5.309999999999992
132 Cu 12.38999999999999 5.309999999999992 3.539999999999992
133 Cu 10.61999999999999 3.539999999999992 7.079999999999991
134 Cu 10.61999999999999 5.309999999999992 8.84999999999999
135 Cu 12.38999999999999 3.539999999999992 8.84999999999999
136 Cu 12.38999999999999 5.309999999999992 7.079999999999991
137 Cu 10.61999999999999 3.539999999999992 10.61999999999999
138 Cu 10.61999999999999 5.309999999999992 12.38999999999999
139 Cu 12.38999999999999 3.539999999999992 12.38999999999999
140 Cu 12.38999999999999 5.309999999999992 10.61999999999999
141 Cu 10.61999999999999 3.539999999999992 14.15999999999999
142 Cu 10.61999999999999 5.309999999999992 15.929999999999989
143 Cu 12.38999999999999 3.539999999999992 15.929999999999989
144 Cu 12.38999999999999 5.309999999999992 14.15999999999999
145 Cu 10.61999999999999 3.539999999999992 17.69999999999999
146 Cu 10.61999999999999 5.309999999999992 19.469999999999988
147 Cu 12.38999999999999 3.539999999999992 19.469999999999988
148 Cu 12.38999999999999 5.309999999999992 17.69999999999999
149 Cu 10.61999999999999 3.539999999999992 21.239999999999988
150 Cu 12.38999999999999 5.309999999999992 21.239999999999988
151 Cu 14.15999999999999 5.309999999999992 1.769999999999993
152 Cu 15.929999999999989 3.539999999999992 1.769999999999993
153 Cu 14.15999999999999 3.539999999999992 3.539999999999992
154 Cu 14.15999999999999 5.309999999999992 5.309999999999992
155 Cu 15.929999999999989 3.539999999999992 5.309999999999992
156 Cu 15.929999999999989 5.309999999999992 3.539999999999992
157 Cu 14.15999999999999 3.539999999999992 7.079999999999991
158 Cu 14.15999999999999 5.309999999999992 8.84999999999999
159 Cu 15.929999999999989 3.539999999999992 8.84999999999999
160 Cu 15.929999999999989 5.309999999999992 7.079999999999991
161 Cu 14.15999999999999 3.539999999999992 10.61999999999999
162 Cu 14.15999999999999 5.309999999999992 12.38999999999999
163 Cu 15.929999999999989 3.539999999999992 12.38999999999999
164 Cu 15.929999999999989 5.309999999999992 10.61999999999999
165 Cu 14.15999999999999 3.539999999999992 14.15999999999999
166 Cu 14.15999999999999 5.309999999999992 15.929999999999989
167 Cu 15.929999999999989 3.539999999999992 15.929999999999989
168 Cu 15.929999999999989 5.309999999999992 14.15999999999999
169 Cu 14.15999999999999 3.539999999999992 17.69999999999999
170 Cu 14.15999999999999 5.309999999999992 19.469999999999988
171 Cu 15.929999999999989 3.539999999999992 19.469999999999988
172 Cu 15.929999999999989 5.309999999999992 17.69999999999999
173 Cu 14.15999999999999 3.539999999999992 21.239999999999988
174 Cu 15.929999999999989 5.309999999999992 21.239999999999988
175 Cu 17.69999999999999 5.309999999999992 1.769999999999993
176 Cu 19.469999999999988 3.539999999999992 1.769999999999993
177 Cu 17.69999999999999 3.539999999999992 3.539999999999992
178 Cu 17.69999999999999 5.309999999999992 5.309999999999992
179 Cu 19.469999999999988 3.539999999999992 5.309999999999992
180 Cu 19.469999999999988 5.309999999999992 3.539999999999992
181 Cu 17.69999999999999 3.539999999999992 7.079999999999991
182 Cu 17.69999999999999 5.309999999999992 8.84999999999999
183 Cu 19.469999999999988 3.539999999999992 8.84999999999999
184 Cu 19.469999999999988 5.309999999999992 7.079999999999991
185 Cu 17.69999999999999 3.539999999999992 10.61999999999999
186 Cu 17.69999999999999 5.309999999999992 12.38999999999999
187 Cu 19.469999999999988 3.539999999999992 12.38999999999999
188 Cu 19.469999999999988 5.309999999999992 10.61999999999999
189 Cu 17.69999999999999 3.539999999999992 14.15999999999999
190 Cu 17.69999999999999 5.309999999999992 15.929999999999989
191 Cu 19.469999999999988 3.539999999999992 15.929999999999989
192 Cu 19.469999999999988 5.309999999999992 14.15999999999999
193 Cu 17.69999999999999 3.539999999999992 17.69999999999999
194 Cu 17.69999999999999 5.309999999999992 19.469999999999988
195 Cu 19.469999999999988 3.539999999999992 19.469999999999988
196 Cu 19.469999999999988 5.309999999999992 17.69999999999999
197 Cu 17.69999999999999 3.539999999999992 21.239999999999988
198 Cu 19.469999999999988 5.309999999999992 21.239999999999988
199 Cu 1.769999999999993 7.079999999999991 1.769999999999993
200 Cu 1.769999999999993 7.079999999999991 5.309999999999992
201 Cu 1.769999999999993 8.84999999999999 3.539999999999992
202 Cu 1.769999999999993 7.079999999999991 8.84999999999999
203 Cu 1.769999999999993 8.84999999999999 7.079999999999991
204 Cu 1.769999999999993 7.079999999999991 12.38999999999999
205 Cu 1.769999999999993 8.84999999999999 10.61999999999999
206 Cu 1.769999999999993 7.079999999999991 15.929999999999989
207 Cu 1.769999999999993 8.84999999999999 14.15999999999999
208 Cu 1.769999999999993 7.079999999999991 19.469999999999988
209 Cu 1.769999999999993 8.84999999999999 17.69999999999999
210 Cu 1.769999999999993 8.84999999999999 21.239999999999988
211 Cu 3.539999999999992 8.84999999999999 1.769999999999993
212 Cu 5.309999999999992 7.079999999999991 1.769999999999993
213 Cu 3.539999999999992 7.079999999999991 3.539999999999992
214 Cu 3.539999999999992 8.84999999999999 5.309999999999992
215 Cu 5.309999999999992 7.079999999999991 5.309999999999992
216 Cu 5.309999999999992 8.84999999999999 3.539999999999992
217 Cu 3.539999999999992 7.079999999999991 7.079999999999991
218 Cu 3.539999999999992 8.84999999999999 8.84999999999999
219 Cu 5.309999999999992 7.079999999999991 8.84999999999999
220 Cu 5.309999999999992 8.84999999999999 7.079999999999991
221 Cu 3.539999999999992 7.079999999999991 10.61999999999999
222 Cu 3.539999999999992 8.84999999999999 12.38999999999999
223 Cu 5.309999999999992 7.079999999999991 12.38999999999999
224 Cu 5.309999999999992 8.84999999999999 10.61999999999999
225 Cu 3.539999999999992 7.079999999999991 14.15999999999999
226 Cu 3.539999999999992 8.84999999999999 15.929999999999989
227 Cu 5.309999999999992 7.079999999999991 15.929999999999989
228 Cu 5.309999999999992 8.84999999999999 14.15999999999999
229 Cu 3.539999999999992 7.079999999999991 17.69999999999999
230 Cu 3.539999999999992 8.84999999999999 19.469999999999988
231 Cu 5.309999999999992 7.079999999999991 19.469999999999988
232 Cu 5.309999999999992 8.84999999999999 17.69999999999999
233 Cu 3.539999999999992 7.079999999999991 21.239999999999988
234 Cu 5.309999999999992 8.84999999999999 21.239999999999988
235 Cu 7.079999999999991 8.84999999999999 1.769999999999993
236 Cu 8.84999999999999 7.079999999999991 1.769999999999993
237 Cu 7.079999999999991 7.079999999999991 3.539999999999992
238 Cu 7.079999999999991 8.84999999999999 5.309999999999992
239 Cu 8.84999999999999 7.079999999999991 5.309999999999992
240 Cu 8.84999999999999 8.84999999999999 3.539999999999992
241 Cu 7.079999999999991 7.079999999999991 7.079999999999991
242 Cu 7.079999999999991 8.84999999999999 8.84999999999999
243 Cu 8.84999999999999 7.079999999999991 8.84999999999999
244 Cu 8.84999999999999 8.84999999999999 7.079999999999991
245 Cu 7.079999999999991 7.079999999999991 10.61999999999999
246 Cu 7.079999999999991 8.84999999999999 12.38999999999999
247 Cu 8.84999999999999 7.079999999999991 12.38999999999999
248 Cu 8.84999999999999 8.84999999999999 10.61999999999999
249 Cu 7.079999999999991 7.079999999999991 14.15999999999999
250 Cu 7.079999999999991 8.84999999999999 15.929999999999989
251 Cu 8.84999999999999 7.079999999999991 15.929999999999989
252 Cu 8.84999999999999 8.84999999999999 14.15999999999999
253 Cu 7.079999999999991 7.079999999999991 17.69999999999999
254 Cu 7.079999999999991 8.84999999999999 19.469999999999988
255 Cu 8.84999999999999 7.079999999999991 19.469999999999988
256 Cu 8.84999999999999 8.84999999999999 17.69999999999999
257 Cu 7.079999999999991 7.079999999999991 21.239999999999988
258 Cu 8.84999999999999 8.84999999999999 21.239999999999988
259 Cu 10.61999999999999 8.84999999999999 1.769999999999993
260 Cu 12.38999999999999 7.079999999999991 1.769999999999993
261 Cu 10.61999999999999 7.079999999999991 3.539999999999992
262 Cu 10.61999999999999 8.84999999999999 5.309999999999992
263 Cu 12.38999999999999 7.079999999999991 5.309999999999992
264 Cu 12.38999999999999 8.84999999999999 3.539999999999992
265 Cu 10.61999999999999 7.079999999999991 7.079999999999991
266 Cu 10.61999999999999 8.84999999999999 8.84999999999999
267 Cu 12.38999999999999 7.079999999999991 8.84999999999999
268 Cu 12.38999999999999 8.84999999999999 7.079999999999991
269 Cu 10.61999999999999 7.079999999999991 10.61999999999999
270 Cu 10.61999999999999 8.84999999999999 12.38999999999999
271 Cu 12.38999999999999 7.079999999999991 12.38999999999999
272 Cu 12.38999999999999 8.84999999999999 10.61999999999999
273 Cu 10.61999999999999 7.079999999999991 14.15999999999999
274 Cu 10.61999999999999 8.84999999999999 15.929999999999989
275 Cu 12.38999999999999 7.079999999999991 15.929999999999989
276 Cu 12.38999999999999 8.84999999999999 14.15999999999999
277 Cu 10.61999999999999 7.079999999999991 17.69999999999999
278 Cu 10.61999999999999 8.84999999999999 19.469999999999988
279 Cu 12.38999999999999 7.079999999999991 19.469999999999988
280 Cu 12.38999999999999 8.84999999999999 17.69999999999999
281 Cu 10.61999999999999 7.079999999999991 21.239999999999988
282 Cu 12.38999999999999 8.84999999999999 21.239999999999988
283 Cu 14.15999999999999 8.84999999999999 1.769999999999993
284 Cu 15.929999999999989 7.079999999999991 1.769999999999993
285 Cu 14.15999999999999 7.079999999999991 3.539999999999992
286 Cu 14.15999999999999 8.84999999999999 5.309999999999992
287 Cu 15.929999999999989 7.079999999999991 5.309999999999992
288 Cu 15.929999999999989 8.84999999999999 3.539999999999992
289 Cu 14.15999999999999 7.079999999999991 7.079999999999991
290 Cu 14.15999999999999 8.84999999999999 8.84999999999999
291 Cu 15.929999999999989 7.079999999999991 8.84999999999999
292 Cu 15.929999999999989 8.84999999999999 7.079999999999991
293 Cu 14.15999999999999 7.079999999999991 10.61999999999999
294 Cu 14.15999999999999 8.84999999999999 12.38999999999999
295 Cu 15.929999999999989 7.079999999999991 12.38999999999999
296 Cu 15.929999999999989 8.84999999999999 10.61999999999999
297 Cu 14.15999999999999 7.079999999999991 14.15999999999999
298 Cu 14.15999999999999 8.84999999999999 15.929999999999989
299 Cu 15.929999999999989 7.079999999999991 15.929999999999989
300 Cu 15.929999999999989 8.84999999999999 14.15999999999999
301 Cu 14.15999999999999 7.079999999999991 17.69999999999999
302 Cu 14.15999999999999 8.84999999999999 19.469999999999988
303 Cu 15.929999999999989 7.079999999999991 19.469999999999988
304 Cu 15.929999999999989 8.84999999999999 17.69999999999999
305 Cu 14.15999999999999 7.079999999999991 21.239999999999988
306 Cu 15.929999999999989 8.84999999999999 21.239999999999988
307 Cu 17.69999999999999 8.84999999999999 1.769999999999993
308 Cu 19.469999999999988 7.079999999999991 1.769999999999993
309 Cu 17.69999999999999 7.079999999999991 3.539999999999992
310 Cu 17.69999999999999 8.84999999999999 5.309999999999992
311 Cu 19.469999999999988 7.079999999999991 5.309999999999992
312 Cu 19.469999999999988 8.84999999999999 3.539999999999992
313 Cu 17.69999999999999 7.079999999999991 7.079999999999991
314 Cu 17.69999999999999 8.84999999999999 8.84999999999999
315 Cu 19.469999999999988 7.079999999999991 8.84999999999999
316 Cu 19.469999999999988 8.84999999999999 7.079999999999991
317 Cu 17.69999999999999 7.079999999999991 10.61999999999999
318 Cu 17.69999999999999 8.84999999999999 12.38999999999999
319 Cu 19.469999999999988 7.079999999999991 12.38999999999999
320 Cu 19.469999999999988 8.84999999999999 10.61999999999999
321 Cu 17.69999999999999 7.079999999999991 14.15999999999999
322 Cu 17.69999999999999 8.84999999999999 15.929999999999989
323 Cu 19.469999999999988 7.079999999999991 15.929999999999989
324 Cu 19.469999999999988 8.84999999999999 14.15999999999999
325 Cu 17.69999999999999 7.079999999999991 17.69999999999999
326 Cu 17.69999999999999 8.84999999999999 19.469999999999988
327 Cu 19.469999999999988 7.079999999999991 19.469999999999988
328 Cu 19.469999999999988 8.84999999999999 17.69999999999999
329 Cu 17.69999999999999 7.079999999999991 21.239999999999988
330 Cu 19.469999999999988 8.84999999999999 21.239999999999988
331 Cu 1.769999999999993 10.61999999999999 1.769999999999993
332 Cu 1.769999999999993 10.61999999999999 5.309999999999992
333 Cu 1.769999999999993 12.38999999999999 3.539999999999992
334 Cu 1.769999999999993 10.61999999999999 8.84999999999999
335 Cu 1.769999999999993 12.38999999999999 7.079999999999991
336 Cu 1.769999999999993 10.61999999999999 12.38999999999999
337 Cu 1.769999999999993 12.38999999999999 10.61999999999999
338 Cu 1.769999999999993 10.61999999999999 15.929999999999989
339 Cu 1.769999999999993 12.38999999999999 14.15999999999999
340 Cu 1.769999999999993 10.61999999999999 19.469999999999988
341 Cu 1.769999999999993 12.38999999999999 17.69999999999999
342 Cu 1.769999999999993 12.38999999999999 21.239999999999988
343 Cu 3.539999999999992 12.38999999999999 1.769999999999993
344 Cu 5.309999999999992 10.61999999999999 1.769999999999993
345 Cu 3.539999999999992 10.61999999999999 3.539999999999992
346 Cu 3.539999999999992 12.38999999999999 5.309999999999992
347 Cu 5.309999999999992 10.61999999999999 5.309999999999992
348 Cu 5.309999999999992 12.38999999999999 3.539999999999992
349 Cu 3.539999999999992 10.61999999999999 7.079999999999991
350 Cu 3.539999999999992 12.38999999999999 8.84999999999999
351 Cu 5.309999999999992 10.61999999999999 8.84999999999999
352 Cu 5.309999999999992 12.38999999999999 7.079999999999991
353 Cu 3.539999999999992 10.61999999999999 10.61999999999999
354 Cu 3.539999999999992 12.38999999999999 12.38999999999999
355 Cu 5.309999999999992 10.61999999999999 12.38999999999999
356 Cu 5.309999999999992 12.38999999999999 10.61999999999999
357 Cu 3.539999999999992 10.61999999999999 14.15999999999999
358 Cu 3.539999999999992 12.38999999999999 15.929999999999989
359 Cu 5.309999999999992 10.61999999999999 15.929999999999989
360 Cu 5.309999999999992 12.38999999999999 14.15999999999999
361 Cu 3.539999999999992 10.61999999999999 17.69999999999999
362 Cu 3.539999999999992 12.38999999999999 19.469999999999988
363 Cu 5.309999999999992 10.61999999999999 19.469999999999988
364 Cu 5.309999999999992 12.38999999999999 17.69999999999999
365 Cu 3.539999999999992 10.61999999999999 21.239999999999988
366 Cu 5.309999999999992 12.38999999999999 21.239999999999988
367 Cu 7.079999999999991 12.38999999999999 1.769999999999993
368 Cu 8.84999999999999 10.61999999999999 1.769999999999993
369 Cu 7.079999999999991 10.61999999999999 3.539999999999992
370 Cu 7.079999999999991 12.38999999999999 5.309999999999992
371 Cu 8.84999999999999 10.61999999999999 5.309999999999992
372 Cu 8.84999999999999 12.38999999999999 3.539999999999992
373 Cu 7.079999999999991 10.61999999999999 7.079999999999991
374 Cu 7.079999999999991 12.38999999999999 8.84999999999999
375 Cu 8.84999999999999 10.61999999999999 8.84999999999999
376 Cu 8.84999999999999 12.38999999999999 7.079999999999991
377 Cu 7.079999999999991 10.61999999999999 10.61999999999999
378 Cu 7.079999999999991 12.38999999999999 12.38999999999999
379 Cu 8.84999999999999 10.61999999999999 12.38999999999999
380 Cu 8.84999999999999 12.38999999999999 10.61999999999999
381 Cu 7.079999999999991 10.61999999999999 14.15999999999999
382 Cu 7.079999999999991 12.38999999999999 15.929999999999989
383 Cu 8.84999999999999 10.61999999999999 15.929999999999989
384 Cu 8.84999999999999 12.38999999999999 14.15999999999999
385 Cu 7.079999999999991 10.61999999999999 17.69999999999999
386 Cu 7.079999999999991 12.38999999999999 19.469999999999988
387 Cu 8.84999999999999 10.61999999999999 19.469999999999988
388 Cu 8.84999999999999 12.38999999999999 17.69999999999999
389 Cu 7.079999999999991 10.61999999999999 21.239999999999988
390 Cu 8.84999999999999 12.38999999999999 21.239999999999988
391 Cu 10.61999999999999 12.38999999999999 1.769999999999993
392 Cu 12.38999999999999 10.61999999999999 1.769999999999993
393 Cu 10.61999999999999 10.61999999999999 3.539999999999992
394 Cu 10.61999999999999 12.38999999999999 5.309999999999992
395 Cu 12.38999999999999 10.61999999999999 5.309999999999992
396 Cu 12.38999999999999 12.38999999999999 3.539999999999992
397 Cu 10.61999999999999 10.61999999999999 7.079999999999991
398 Cu 10.61999999999999 12.38999999999999 8.84999999999999
399 Cu 12.38999999999999 10.61999999999999 8.84999999999999
400 Cu 12.38999999999999 12.38999999999999 7.079999999999991
401 Cu 10.61999999999999 10.61999999999999 10.61999999999999
402 Cu 10.61999999999999 12.38999999999999 12.38999999999999
403 Cu 12.38999999999999 10.61999999999999 12.38999999999999
404 Cu 12.38999999999999 12.38999999999999 10.61999999999999
405 Cu 10.61999999999999 10.61999999999999 14.15999999999999
406 Cu 10.61999999999999 12.38999999999999 15.929999999999989
407 Cu 12.38999999999999 10.61999999999999 15.929999999999989
408 Cu 12.38999999999999 12.38999999999999 14.15999999999999
409 Cu 10.61999999999999 10.61999999999999 17.69999999999999
410 Cu 10.61999999999999 12.38999999999999 19.469999999999988
411 Cu 12.38999999999999 10.61999999999999 19.469999999999988
412 Cu 12.38999999999999 12.38999999999999 17.69999999999999
413 Cu 10.61999999999999 10.61999999999999 21.239999999999988
414 Cu 12.38999999999999 12.38999999999999 21.239999999999988
415 Cu 14.15999999999999 12.38999999999999 1.769999999999993
416 Cu 15.929999999999989 10.61999999999999 1.769999999999993
417 Cu 14.15999999999999 10.61999999999999 3.539999999999992
418 Cu 14.15999999999999 12.38999999999999 5.309999999999992
419 Cu 15.929999999999989 10.61999999999999 5.309999999999992
420 Cu 15.929999999999989 12.38999999999999 3.539999999999992
421 Cu 14.15999999999999 10.61999999999999 7.079999999999991
422 Cu 14.15999999999999 12.38999999999999 8.84999999999999
423 Cu 15.929999999999989 10.61999999999999 8.84999999999999
424 Cu 15.929999999999989 12.38999999999999 7.079999999999991
425 Cu 14.15999999999999 10.61999999999999 10.61999999999999
426 Cu 14.15999999999999 12.38999999999999 12.38999999999999
427 Cu 15.929999999999989 10.61999999999999 12.38999999999999
428 Cu 15.929999999999989 12.38999999999999 10.61999999999999
429 Cu 14.15999999999999 10.61999999999999 14.15999999999999
430 Cu 14.15999999999999 12.38999999999999 15.929999999999989
431 Cu 15.929999999999989 10.61999999999999 15.929999999999989
432 Cu 15.929999999999989 12.38999999999999 14.15999999999999
433 Cu 14.15999999999999 10.61999999999999 17.69999999999999
434 Cu 14.15999999999999 12.38999999999999 19.469999999999988
435 Cu 15.929999999999989 10.61999999999999 19.469999999999988
436 Cu 15.929999999999989 12.38999999999999 17.69999999999999
437 Cu 14.15999999999999 10.61999999999999 21.239999999999988
438 Cu 15.929999999999989 12.38999999999999 21.239999999999988
439 Cu 17.69999999999999 12.38999999999999 1.769999999999993
440 Cu 19.469999999999988 10.61999999999999 1.769999999999993
441 Cu 17.69999999999999 10.61999999999999 3.539999999999992
442 Cu 17.69999999999999 12.38999999999999 5.309999999999992
443 Cu 19.469999999999988 10.61999999999999 5.309999999999992
444 Cu 19.469999999999988 12.38999999999999 3.539999999999992
445 Cu 17.69999999999999 10.61999999999999 7.079999999999991
446 Cu 17.69999999999999 12.38999999999999 8.84999999999999
447 Cu 19.469999999999988 10.61999999999999 8.84999999999999
448 Cu 19.469999999999988 12.38999999999999 7.079999999999991
449 Cu 17.69999999999999 10.61999999999999 10.61999999999999
450 Cu 17.69999999999999 12.38999999999999 12.38999999999999
451 Cu 19.469999999999988 10.61999999999999 12.38999999999999
452 Cu 19.469999999999988 12.38999999999999 10.61999999999999
453 Cu 17.69999999999999 10.61999999999999 14.15999999999999
454 Cu 17.69999999999999 12.38999999999999 15.929999999999989
455 Cu 19.469999999999988 10.61999999999999 15.929999999999989
456 Cu 19.469999999999988 12.38999999999999 14.15999999999999
457 Cu 17.69999999999999 10.61999999999999 17.69999999999999
458 Cu 17.69999999999999 12.38999999999999 19.469999999999988
459 Cu 19.469999999999988 10.61999999999999 19.469999999999988
460 Cu 19.469999999999988 12.38999999999999 17.69999999999999
461 Cu 17.69999999999999 10.61999999999999 21.239999999999988
462 Cu 19.469999999999988 12.38999999999999 21.239999999999988
463 Cu 1.769999999999993 14.15999999999999 1.769999999999993
464 Cu 1.769999999999993 14.15999999999999 5.309999999999992
465 Cu 1.769999999999993 15.929999999999989 3.539999999999992
466 Cu 1.769999999999993 14.15999999999999 8.84999999999999
467 Cu 1.769999999999993 15.929999999999989 7.079999999999991
468 Cu 1.769999999999993 14.15999999999999 12.38999999999999
469 Cu 1.769999999999993 15.929999999999989 10.61999999999999
470 Cu 1.769999999999993 14.15999999999999 15.929999999999989
471 Cu 1.769999999999993 15.929999999999989 14.15999999999999
472 Cu 1.769999999999993 14.15999999999999 19.469999999999988
473 Cu 1.769999999999993 15.929999999999989 17.69999999999999
474 Cu 1.769999999999993 15.929999999999989 21.239999999999988
475 Cu 3.539999999999992 15.929999999999989 1.769999999999993
476 Cu 5.309999999999992 14.15999999999999 1.769999999999993
477 Cu 3.539999999999992 14.15999999999999 3.539999999999992
478 Cu 3.539999999999992 15.929999999999989 5.309999999999992
479 Cu 5.309999999999992 14.15999999999999 5.309999999999992
480 Cu 5.309999999999992 15.929999999999989 3.539999999999992
481 Cu 3.539999999999992 14.15999999999999 7.079999999999991
482 Cu 3.539999999999992 15.929999999999989 8.84999999999999
483 Cu 5.309999999999992 14.15999999999999 8.84999999999999
484 Cu 5.309999999999992 15.929999999999989 7.079999999999991
485 Cu 3.539999999999992 14.15999999999999 10.61999999999999
486 Cu 3.539999999999992 15.929999999999989 12.38999999999999
487 Cu 5.309999999999992 14.15999999999999 12.38999999999999
488 Cu 5.309999999999992 15.929999999999989 10.61999999999999
489 Cu 3.539999999999992 14.15999999999999 14.15999999999999