Crystalline Cu atoms

1014 atoms
1 atom types
0.000000 41.240000 xlo xhi
0.000000 21.240000 ylo yhi
0.000000 21.240000 zlo zhi

Atom Type Labels

1 Cu

Atoms

1 Cu 10.000000 0.000000 0.000000
2 Cu 10.000000 1.770000 1.770000
3 Cu 11.770000 0.000000 1.770000
4 Cu 11.770000 1.770000 0.000000
5 Cu 10.000000 0.000000 3.540000
6 Cu 10.000000 1.770000 5.310000
7 Cu 11.770000 0.000000 5.310000
8 Cu 11.770000 1.770000 3.540000
9 Cu 10.000000 0.000000 7.080000
10 Cu 10.000000 1.770000 8.850000
11 Cu 11.770000 0.000000 8.850000
12 Cu 11.770000 1.770000 7.080000
13 Cu 10.000000 0.000000 10.620000
14 Cu 10.000000 1.770000 12.390000
15 Cu 11.770000 0.000000 12.390000
16 Cu 11.770000 1.770000 10.620000
17 Cu 10.000000 0.000000 14.160000
18 Cu 10.000000 1.770000 15.930000
19 Cu 11.770000 0.000000 15.930000
20 Cu 11.770000 1.770000 14.160000
21 Cu 10.000000 0.000000 17.700000
22 Cu 10.000000 1.770000 19.470000
23 Cu 11.770000 0.000000 19.470000
24 Cu 11.770000 1.770000 17.700000
25 Cu 10.000000 3.540000 0.000000
26 Cu 10.000000 5.310000 1.770000
27 Cu 11.770000 3.540000 1.770000
28 Cu 11.770000 5.310000 0.000000
29 Cu 10.000000 3.540000 3.540000
30 Cu 10.000000 5.310000 5.310000
31 Cu 11.770000 3.540000 5.310000
32 Cu 11.770000 5.310000 3.540000
33 Cu 10.000000 3.540000 7.080000
34 Cu 10.000000 5.310000 8.850000
35 Cu 11.770000 3.540000 8.850000
36 Cu 11.770000 5.310000 7.080000
37 Cu 10.000000 3.540000 10.620000
38 Cu 10.000000 5.310000 12.390000
39 Cu 11.770000 3.540000 12.390000
40 Cu 11.770000 5.310000 10.620000
41 Cu 10.000000 3.540000 14.160000
42 Cu 10.000000 5.310000 15.930000
43 Cu 11.770000 3.540000 15.930000
44 Cu 11.770000 5.310000 14.160000
45 Cu 10.000000 3.540000 17.700000
46 Cu 10.000000 5.310000 19.470000
47 Cu 11.770000 3.540000 19.470000
48 Cu 11.770000 5.310000 17.700000
49 Cu 10.000000 7.080000 0.000000
50 Cu 10.000000 8.850000 1.770000
51 Cu 11.770000 7.080000 1.770000
52 Cu 11.770000 8.850000 0.000000
53 Cu 10.000000 7.080000 3.540000
54 Cu 10.000000 8.850000 5.310000
55 Cu 11.770000 7.080000 5.310000
56 Cu 11.770000 8.850000 3.540000
57 Cu 10.000000 7.080000 7.080000
58 Cu 10.000000 8.850000 8.850000
59 Cu 11.770000 7.080000 8.850000
60 Cu 11.770000 8.850000 7.080000
61 Cu 10.000000 7.080000 10.620000
62 Cu 10.000000 8.850000 12.390000
63 Cu 11.770000 7.080000 12.390000
64 Cu 11.770000 8.850000 10.620000
65 Cu 10.000000 7.080000 14.160000
66 Cu 10.000000 8.850000 15.930000
67 Cu 11.770000 7.080000 15.930000
68 Cu 11.770000 8.850000 14.160000
69 Cu 10.000000 7.080000 17.700000
70 Cu 10.000000 8.850000 19.470000
71 Cu 11.770000 7.080000 19.470000
72 Cu 11.770000 8.850000 17.700000
73 Cu 10.000000 10.620000 0.000000
74 Cu 10.000000 12.390000 1.770000
75 Cu 11.770000 10.620000 1.770000
76 Cu 11.770000 12.390000 0.000000
77 Cu 10.000000 10.620000 3.540000
78 Cu 10.000000 12.390000 5.310000
79 Cu 11.770000 10.620000 5.310000
80 Cu 11.770000 12.390000 3.540000
81 Cu 10.000000 10.620000 7.080000
82 Cu 10.000000 12.390000 8.850000
83 Cu 11.770000 10.620000 8.850000
84 Cu 11.770000 12.390000 7.080000
85 Cu 10.000000 10.620000 10.620000
86 Cu 10.000000 12.390000 12.390000
87 Cu 11.770000 10.620000 12.390000
88 Cu 11.770000 12.390000 10.620000
89 Cu 10.000000 10.620000 14.160000
90 Cu 10.000000 12.390000 15.930000
91 Cu 11.770000 10.620000 15.930000
92 Cu 11.770000 12.390000 14.160000
93 Cu 10.000000 10.620000 17.700000
94 Cu 10.000000 12.390000 19.470000
95 Cu 11.770000 10.620000 19.470000
96 Cu 11.770000 12.390000 17.700000
97 Cu 10.000000 14.160000 0.000000
98 Cu 10.000000 15.930000 1.770000
99 Cu 11.770000 14.160000 1.770000
100 Cu 11.770000 15.930000 0.000000
101 Cu 10.000000 14.160000 3.540000
102 Cu 10.000000 15.930000 5.310000
103 Cu 11.770000 14.160000 5.310000
104 Cu 11.770000 15.930000 3.540000
105 Cu 10.000000 14.160000 7.080000
106 Cu 10.000000 15.930000 8.850000
107 Cu 11.770000 14.160000 8.850000
108 Cu 11.770000 15.930000 7.080000
109 Cu 10.000000 14.160000 10.620000
110 Cu 10.000000 15.930000 12.390000
111 Cu 11.770000 14.160000 12.390000
112 Cu 11.770000 15.930000 10.620000
113 Cu 10.000000 14.160000 14.160000
114 Cu 10.000000 15.930000 15.930000
115 Cu 11.770000 14.160000 15.930000
116 Cu 11.770000 15.930000 14.160000
117 Cu 10.000000 14.160000 17.700000
118 Cu 10.000000 15.930000 19.470000
119 Cu 11.770000 14.160000 19.470000
120 Cu 11.770000 15.930000 17.700000
121 Cu 10.000000 17.700000 0.000000
122 Cu 10.000000 19.470000 1.770000
123 Cu 11.770000 17.700000 1.770000
124 Cu 11.770000 19.470000 0.000000
125 Cu 10.000000 17.700000 3.540000
126 Cu 10.000000 19.470000 5.310000
127 Cu 11.770000 17.700000 5.310000
128 Cu 11.770000 19.470000 3.540000
129 Cu 10.000000 17.700000 7.080000
130 Cu 10.000000 19.470000 8.850000
131 Cu 11.770000 17.700000 8.850000
132 Cu 11.770000 19.470000 7.080000
133 Cu 10.000000 17.700000 10.620000
134 Cu 10.000000 19.470000 12.390000
135 Cu 11.770000 17.700000 12.390000
136 Cu 11.770000 19.470000 10.620000
137 Cu 10.000000 17.700000 14.160000
138 Cu 10.000000 19.470000 15.930000
139 Cu 11.770000 17.700000 15.930000
140 Cu 11.770000 19.470000 14.160000
141 Cu 10.000000 17.700000 17.700000
142 Cu 10.000000 19.470000 19.470000
143 Cu 11.770000 17.700000 19.470000
144 Cu 11.770000 19.470000 17.700000
145 Cu 13.540000 0.000000 0.000000
146 Cu 13.540000 1.770000 1.770000
147 Cu 15.310000 0.000000 1.770000
148 Cu 15.310000 1.770000 0.000000
149 Cu 13.540000 0.000000 3.540000
150 Cu 13.540000 1.770000 5.310000
151 Cu 15.310000 0.000000 5.310000
152 Cu 15.310000 1.770000 3.540000
153 Cu 13.540000 0.000000 7.080000
154 Cu 13.540000 1.770000 8.850000
155 Cu 15.310000 0.000000 8.850000
156 Cu 15.310000 1.770000 7.080000
157 Cu 13.540000 0.000000 10.620000
158 Cu 13.540000 1.770000 12.390000
159 Cu 15.310000 0.000000 12.390000
160 Cu 15.310000 1.770000 10.620000
161 Cu 13.540000 0.000000 14.160000
162 Cu 13.540000 1.770000 15.930000
163 Cu 15.310000 0.000000 15.930000
164 Cu 15.310000 1.770000 14.160000
165 Cu 13.540000 0.000000 17.700000
166 Cu 13.540000 1.770000 19.470000
167 Cu 15.310000 0.000000 19.470000
168 Cu 15.310000 1.770000 17.700000
169 Cu 13.540000 3.540000 0.000000
170 Cu 13.540000 5.310000 1.770000
171 Cu 15.310000 3.540000 1.770000
172 Cu 15.310000 5.310000 0.000000
173 Cu 13.540000 3.540000 3.540000
174 Cu 13.540000 5.310000 5.310000
175 Cu 15.310000 3.540000 5.310000
176 Cu 15.310000 5.310000 3.540000
177 Cu 13.540000 3.540000 7.080000
178 Cu 13.540000 5.310000 8.850000
179 Cu 15.310000 3.540000 8.850000
180 Cu 15.310000 5.310000 7.080000
181 Cu 13.540000 3.540000 10.620000
182 Cu 13.540000 5.310000 12.390000
183 Cu 15.310000 3.540000 12.390000
184 Cu 15.310000 5.310000 10.620000
185 Cu 13.540000 3.540000 14.160000
186 Cu 13.540000 5.310000 15.930000
187 Cu 15.310000 3.540000 15.930000
188 Cu 15.310000 5.310000 14.160000
189 Cu 13.540000 3.540000 17.700000
190 Cu 13.540000 5.310000 19.470000
191 Cu 15.310000 3.540000 19.470000
192 Cu 15.310000 5.310000 17.700000
193 Cu 13.540000 7.080000 0.000000
194 Cu 13.540000 8.850000 1.770000
195 Cu 15.310000 7.080000 1.770000
196 Cu 15.310000 8.850000 0.000000
197 Cu 13.540000 7.080000 3.540000
198 Cu 13.540000 8.850000 5.310000
199 Cu 15.310000 7.080000 5.310000
200 Cu 15.310000 8.850000 3.540000
201 Cu 13.540000 7.080000 7.080000
202 Cu 13.540000 8.850000 8.850000
203 Cu 15.310000 7.080000 8.850000
204 Cu 15.310000 8.850000 7.080000
205 Cu 13.540000 7.080000 10.620000
206 Cu 13.540000 8.850000 12.390000
207 Cu 15.310000 7.080000 12.390000
208 Cu 15.310000 8.850000 10.620000
209 Cu 13.540000 7.080000 14.160000
210 Cu 13.540000 8.850000 15.930000
211 Cu 15.310000 7.080000 15.930000
212 Cu 15.310000 8.850000 14.160000
213 Cu 13.540000 7.080000 17.700000
214 Cu 13.540000 8.850000 19.470000
215 Cu 15.310000 7.080000 19.470000
216 Cu 15.310000 8.850000 17.700000
217 Cu 13.540000 10.620000 0.000000
218 Cu 13.540000 12.390000 1.770000
219 Cu 15.310000 10.620000 1.770000
220 Cu 15.310000 12.390000 0.000000
221 Cu 13.540000 10.620000 3.540000
222 Cu 13.540000 12.390000 5.310000
223 Cu 15.310000 10.620000 5.310000
224 Cu 15.310000 12.390000 3.540000
225 Cu 13.540000 10.620000 7.080000
226 Cu 13.540000 12.390000 8.850000
227 Cu 15.310000 10.620000 8.850000
228 Cu 15.310000 12.390000 7.080000
229 Cu 13.540000 10.620000 10.620000
230 Cu 13.540000 12.390000 12.390000
231 Cu 15.310000 10.620000 12.390000
232 Cu 15.310000 12.390000 10.620000
233 Cu 13.540000 10.620000 14.160000
234 Cu 13.540000 12.390000 15.930000
235 Cu 15.310000 10.620000 15.930000
236 Cu 15.310000 12.390000 14.160000
237 Cu 13.540000 10.620000 17.700000
238 Cu 13.540000 12.390000 19.470000
239 Cu 15.310000 10.620000 19.470000
240 Cu 15.310000 12.390000 17.700000
241 Cu 13.540000 14.160000 0.000000
242 Cu 13.540000 15.930000 1.770000
243 Cu 15.310000 14.160000 1.770000
244 Cu 15.310000 15.930000 0.000000
245 Cu 13.540000 14.160000 3.540000
246 Cu 13.540000 15.930000 5.310000
247 Cu 15.310000 14.160000 5.310000
248 Cu 15.310000 15.930000 3.540000
249 Cu 13.540000 14.160000 7.080000
250 Cu 13.540000 15.930000 8.850000
251 Cu 15.310000 14.160000 8.850000
252 Cu 15.310000 15.930000 7.080000
253 Cu 13.540000 14.160000 10.620000
254 Cu 13.540000 15.930000 12.390000
255 Cu 15.310000 14.160000 12.390000
256 Cu 15.310000 15.930000 10.620000
257 Cu 13.540000 14.160000 14.160000
258 Cu 13.540000 15.930000 15.930000
259 Cu 15.310000 14.160000 15.930000
260 Cu 15.310000 15.930000 14.160000
261 Cu 13.540000 14.160000 17.700000
262 Cu 13.540000 15.930000 19.470000
263 Cu 15.310000 14.160000 19.470000
264 Cu 15.310000 15.930000 17.700000
265 Cu 13.540000 17.700000 0.000000
266 Cu 13.540000 19.470000 1.770000
267 Cu 15.310000 17.700000 1.770000
268 Cu 15.310000 19.470000 0.000000
269 Cu 13.540000 17.700000 3.540000
270 Cu 13.540000 19.470000 5.310000
271 Cu 15.310000 17.700000 5.310000
272 Cu 15.310000 19.470000 3.540000
273 Cu 13.540000 17.700000 7.080000
274 Cu 13.540000 19.470000 8.850000
275 Cu 15.310000 17.700000 8.850000
276 Cu 15.310000 19.470000 7.080000
277 Cu 13.540000 17.700000 10.620000
278 Cu 13.540000 19.470000 12.390000
279 Cu 15.310000 17.700000 12.390000
280 Cu 15.310000 19.470000 10.620000
281 Cu 13.540000 17.700000 14.160000
282 Cu 13.540000 19.470000 15.930000
283 Cu 15.310000 17.700000 15.930000
284 Cu 15.310000 19.470000 14.160000
285 Cu 13.540000 17.700000 17.700000
286 Cu 13.540000 19.470000 19.470000
287 Cu 15.310000 17.700000 19.470000
288 Cu 15.310000 19.470000 17.700000
289 Cu 17.080000 0.000000 0.000000
290 Cu 17.080000 1.770000 1.770000
291 Cu 18.850000 0.000000 1.770000
292 Cu 18.850000 1.770000 0.000000
293 Cu 17.080000 0.000000 3.540000
294 Cu 17.080000 1.770000 5.310000
295 Cu 18.850000 0.000000 5.310000
296 Cu 18.850000 1.770000 3.540000
297 Cu 17.080000 0.000000 7.080000
298 Cu 17.080000 1.770000 8.850000
299 Cu 18.850000 0.000000 8.850000
300 Cu 18.850000 1.770000 7.080000
301 Cu 17.080000 0.000000 10.620000
302 Cu 17.080000 1.770000 12.390000
303 Cu 18.850000 0.000000 12.390000
304 Cu 18.850000 1.770000 10.620000
305 Cu 17.080000 0.000000 14.160000
306 Cu 17.080000 1.770000 15.930000
307 Cu 18.850000 0.000000 15.930000
308 Cu 18.850000 1.770000 14.160000
309 Cu 17.080000 0.000000 17.700000
310 Cu 17.080000 1.770000 19.470000
311 Cu 18.850000 0.000000 19.470000
312 Cu 18.850000 1.770000 17.700000
313 Cu 17.080000 3.540000 0.000000
314 Cu 17.080000 5.310000 1.770000
315 Cu 18.850000 3.540000 1.770000
316 Cu 18.850000 5.310000 0.000000
317 Cu 17.080000 3.540000 3.540000
318 Cu 17.080000 5.310000 5.310000
319 Cu 18.850000 3.540000 5.310000
320 Cu 18.850000 5.310000 3.540000
321 Cu 17.080000 3.540000 7.080000
322 Cu 17.080000 5.310000 8.850000
323 Cu 18.850000 3.540000 8.850000
324 Cu 18.850000 5.310000 7.080000
325 Cu 17.080000 3.540000 10.620000
326 Cu 17.080000 5.310000 12.390000
327 Cu 18.850000 3.540000 12.390000
328 Cu 18.850000 5.310000 10.620000
329 Cu 17.080000 3.540000 14.160000
330 Cu 17.080000 5.310000 15.930000
331 Cu 18.850000 3.540000 15.930000
332 Cu 18.850000 5.310000 14.160000
333 Cu 17.080000 3.540000 17.700000
334 Cu 17.080000 5.310000 19.470000
335 Cu 18.850000 3.540000 19.470000
336 Cu 18.850000 5.310000 17.700000
337 Cu 17.080000 7.080000 0.000000
338 Cu 17.080000 8.850000 1.770000
339 Cu 18.850000 7.080000 1.770000
340 Cu 18.850000 8.850000 0.000000
341 Cu 17.080000 7.080000 3.540000
342 Cu 17.080000 8.850000 5.310000
343 Cu 18.850000 7.080000 5.310000
344 Cu 18.850000 8.850000 3.540000
345 Cu 17.080000 7.080000 7.080000
346 Cu 17.080000 8.850000 8.850000
347 Cu 18.850000 7.080000 8.850000
348 Cu 18.850000 8.850000 7.080000
349 Cu 17.080000 7.080000 10.620000
350 Cu 17.080000 8.850000 12.390000
351 Cu 18.850000 7.080000 12.390000
352 Cu 18.850000 8.850000 10.620000
353 Cu 17.080000 7.080000 14.160000
354 Cu 17.080000 8.850000 15.930000
355 Cu 18.850000 7.080000 15.930000
356 Cu 18.850000 8.850000 14.160000
357 Cu 17.080000 7.080000 17.700000
358 Cu 17.080000 8.850000 19.470000
359 Cu 18.850000 7.080000 19.470000
360 Cu 18.850000 8.850000 17.700000
361 Cu 17.080000 10.620000 0.000000
362 Cu 17.080000 12.390000 1.770000
363 Cu 18.850000 10.620000 1.770000
364 Cu 18.850000 12.390000 0.000000
365 Cu 17.080000 10.620000 3.540000
366 Cu 17.080000 12.390000 5.310000
367 Cu 18.850000 10.620000 5.310000
368 Cu 18.850000 12.390000 3.540000
369 Cu 17.080000 10.620000 7.080000
370 Cu 17.080000 12.390000 8.850000
371 Cu 18.850000 10.620000 8.850000
372 Cu 18.850000 12.390000 7.080000
373 Cu 17.080000 10.620000 10.620000
374 Cu 17.080000 12.390000 12.390000
375 Cu 18.850000 10.620000 12.390000
376 Cu 18.850000 12.390000 10.620000
377 Cu 17.080000 10.620000 14.160000
378 Cu 17.080000 12.390000 15.930000
379 Cu 18.850000 10.620000 15.930000
380 Cu 18.850000 12.390000 14.160000
381 Cu 17.080000 10.620000 17.700000
382 Cu 17.080000 12.390000 19.470000
383 Cu 18.850000 10.620000 19.470000
384 Cu 18.850000 12.390000 17.700000
385 Cu 17.080000 14.160000 0.000000
386 Cu 17.080000 15.930000 1.770000
387 Cu 18.850000 14.160000 1.770000
388 Cu 18.850000 15.930000 0.000000
389 Cu 17.080000 14.160000 3.540000
390 Cu 17.080000 15.930000 5.310000
391 Cu 18.850000 14.160000 5.310000
392 Cu 18.850000 15.930000 3.540000
393 Cu 17.080000 14.160000 7.080000
394 Cu 17.080000 15.930000 8.850000
395 Cu 18.850000 14.160000 8.850000
396 Cu 18.850000 15.930000 7.080000
397 Cu 17.080000 14.160000 10.620000
398 Cu 17.080000 15.930000 12.390000
399 Cu 18.850000 14.160000 12.390000
400 Cu 18.850000 15.930000 10.620000
401 Cu 17.080000 14.160000 14.160000
402 Cu 17.080000 15.930000 15.930000
403 Cu 18.850000 14.160000 15.930000
404 Cu 18.850000 15.930000 14.160000
405 Cu 17.080000 14.160000 17.700000
406 Cu 17.080000 15.930000 19.470000
407 Cu 18.850000 14.160000 19.470000
408 Cu 18.850000 15.930000 17.700000
409 Cu 17.080000 17.700000 0.000000
410 Cu 17.080000 19.470000 1.770000
411 Cu 18.850000 17.700000 1.770000
412 Cu 18.850000 19.470000 0.000000
413 Cu 17.080000 17.700000 3.540000
414 Cu 17.080000 19.470000 5.310000
415 Cu 18.850000 17.700000 5.310000
416 Cu 18.850000 19.470000 3.540000
417 Cu 17.080000 17.700000 7.080000
418 Cu 17.080000 19.470000 8.850000
419 Cu 18.850000 17.700000 8.850000
420 Cu 18.850000 19.470000 7.080000
421 Cu 17.080000 17.700000 10.620000
422 Cu 17.080000 19.470000 12.390000
423 Cu 18.850000 17.700000 12.390000
424 Cu 18.850000 19.470000 10.620000
425 Cu 17.080000 17.700000 14.160000
426 Cu 17.080000 19.470000 15.930000
427 Cu 18.850000 17.700000 15.930000
428 Cu 18.850000 19.470000 14.160000
429 Cu 17.080000 17.700000 17.700000
430 Cu 17.080000 19.470000 19.470000
431 Cu 18.850000 17.700000 19.470000
432 Cu 18.850000 19.470000 17.700000
433 Cu 20.620000 0.000000 0.000000
434 Cu 20.620000 1.770000 1.770000
435 Cu 22.390000 0.000000 1.770000
436 Cu 22.390000 1.770000 0.000000
437 Cu 20.620000 0.000000 3.540000
438 Cu 20.620000 1.770000 5.310000
439 Cu 22.390000 0.000000 5.310000
440 Cu 22.390000 1.770000 3.540000
441 Cu 20.620000 0.000000 7.080000
442 Cu 20.620000 1.770000 8.850000
443 Cu 22.390000 0.000000 8.850000
444 Cu 22.390000 1.770000 7.080000
445 Cu 20.620000 0.000000 10.620000
446 Cu 20.620000 1.770000 12.390000
447 Cu 22.390000 0.000000 12.390000
448 Cu 22.390000 1.770000 10.620000
449 Cu 20.620000 0.000000 14.160000
450 Cu 20.620000 1.770000 15.930000
451 Cu 22.390000 0.000000 15.930000
452 Cu 22.390000 1.770000 14.160000
453 Cu 20.620000 0.000000 17.700000
454 Cu 20.620000 1.770000 19.470000
455 Cu 22.390000 0.000000 19.470000
456 Cu 22.390000 1.770000 17.700000
457 Cu 20.620000 3.540000 0.000000
458 Cu 20.620000 5.310000 1.770000
459 Cu 22.390000 3.540000 1.770000
460 Cu 22.390000 5.310000 0.000000
461 Cu 20.620000 3.540000 3.540000
462 Cu 20.620000 5.310000 5.310000
463 Cu 22.390000 3.540000 5.310000
464 Cu 22.390000 5.310000 3.540000
465 Cu 20.620000 3.540000 7.080000
466 Cu 20.620000 5.310000 8.850000
467 Cu 22.390000 3.540000 8.850000
468 Cu 22.390000 5.310000 7.080000
469 Cu 20.620000 3.540000 10.620000
470 Cu 20.620000 5.310000 12.390000
471 Cu 22.390000 3.540000 12.390000
472 Cu 22.390000 5.310000 10.620000
473 Cu 20.620000 3.540000 14.160000
474 Cu 20.620000 5.310000 15.930000
475 Cu 22.390000 3.540000 15.930000
476 Cu 22.390000 5.310000 14.160000
477 Cu 20.620000 3.540000 17.700000
478 Cu 20.620000 5.310000 19.470000
479 Cu 22.390000 3.540000 19.470000
480 Cu 22.390000 5.310000 17.700000
481 Cu 20.620000 7.080000 0.000000
482 Cu 20.620000 8.850000 1.770000
483 Cu 22.390000 7.080000 1.770000
484 Cu 22.390000 8.850000 0.000000
485 Cu 20.620000 7.080000 3.540000
486 Cu 20.620000 8.850000 5.310000
487 Cu 22.390000 7.080000 5.310000
488 Cu 22.390000 8.850000 3.540000
489 Cu 20.620000 7.080000 7.080000
490 Cu 20.620000 8.850000 8.850000
491 Cu 22.390000 7.080000 8.850000
492 Cu 22.390000 8.850000 7.080000
493 Cu 20.620000 7.080000 10.620000
494 Cu 20.620000 8.850000 12.390000
495 Cu 22.390000 7.080000 12.390000
496 Cu 22.390000 8.850000 10.620000
497 Cu 20.620000 7.080000 14.160000
498 Cu 20.620000 8.850000 15.930000
499 Cu 22.390000 7.080000 15.930000
500 Cu 22.390000 8.850000 14.160000
501 Cu 20.620000 7.080000 17.700000
502 Cu 20.620000 8.850000 19.470000
503 Cu 22.390000 7.080000 19.470000
504 Cu 22.390000 8.850000 17.700000
505 Cu 20.620000 10.620000 0.000000
506 Cu 20.620000 12.390000 1.770000
507 Cu 22.390000 10.620000 1.770000
508 Cu 22.390000 12.390000 0.000000
509 Cu 20.620000 10.620000 3.540000
510 Cu 20.620000 12.390000 5.310000
511 Cu 22.390000 10.620000 5.310000
512 Cu 22.390000 12.390000 3.540000
513 Cu 20.620000 10.620000 7.080000
514 Cu 20.620000 12.390000 8.850000
515 Cu 22.390000 10.620000 8.850000
516 Cu 22.390000 12.390000 7.080000
517 Cu 20.620000 10.620000 10.620000
518 Cu 20.620000 12.390000 12.390000
519 Cu 22.390000 10.620000 12.390000
520 Cu 22.390000 12.390000 10.620000
521 Cu 20.620000 10.620000 14.160000
522 Cu 20.620000 12.390000 15.930000
523 Cu 22.390000 10.620000 15.930000
524 Cu 22.390000 12.390000 14.160000
525 Cu 20.620000 10.620000 17.700000
526 Cu 20.620000 12.390000 19.470000
527 Cu 22.390000 10.620000 19.470000
528 Cu 22.390000 12.390000 17.700000
529 Cu 20.620000 14.160000 0.000000
530 Cu 20.620000 15.930000 1.770000
531 Cu 22.390000 14.160000 1.770000
532 Cu 22.390000 15.930000 0.000000
533 Cu 20.620000 14.160000 3.540000
534 Cu 20.620000 15.930000 5.310000
535 Cu 22.390000 14.160000 5.310000
536 Cu 22.390000 15.930000 3.540000
537 Cu 20.620000 14.160000 7.080000
538 Cu 20.620000 15.930000 8.850000
539 Cu 22.390000 14.160000 8.850000
540 Cu 22.390000 15.930000 7.080000
541 Cu 20.620000 14.160000 10.620000
542 Cu 20.620000 15.930000 12.390000
543 Cu 22.390000 14.160000 12.390000
544 Cu 22.390000 15.930000 10.620000
545 Cu 20.620000 14.160000 14.160000
546 Cu 20.620000 15.930000 15.930000
547 Cu 22.390000 14.160000 15.930000
548 Cu 22.390000 15.930000 14.160000
549 Cu 20.620000 14.160000 17.700000
550 Cu 20.620000 15.930000 19.470000
551 Cu 22.390000 14.160000 19.470000
552 Cu 22.390000 15.930000 17.700000
553 Cu 20.620000 17.700000 0.000000
554 Cu 20.620000 19.470000 1.770000
555 Cu 22.390000 17.700000 1.770000
556 Cu 22.390000 19.470000 0.000000
557 Cu 20.620000 17.700000 3.540000
558 Cu 20.620000 19.470000 5.310000
559 Cu 22.390000 17.700000 5.310000
560 Cu 22.390000 19.470000 3.540000
561 Cu 20.620000 17.700000 7.080000
562 Cu 20.620000 19.470000 8.850000
563 Cu 22.390000 17.700000 8.850000
564 Cu 22.390000 19.470000 7.080000
565 Cu 20.620000 17.700000 10.620000
566 Cu 20.620000 19.470000 12.390000
567 Cu 22.390000 17.700000 12.390000
568 Cu 22.390000 19.470000 10.620000
569 Cu 20.620000 17.700000 14.160000
570 Cu 20.620000 19.470000 15.930000
571 Cu 22.390000 17.700000 15.930000
572 Cu 22.390000 19.470000 14.160000
573 Cu 20.620000 17.700000 17.700000
574 Cu 20.620000 19.470000 19.470000
575 Cu 22.390000 17.700000 19.470000
576 Cu 22.390000 19.470000 17.700000
577 Cu 24.160000 0.000000 0.000000
578 Cu 24.160000 1.770000 1.770000
579 Cu 25.930000 0.000000 1.770000
580 Cu 25.930000 1.770000 0.000000
581 Cu 24.160000 0.000000 3.540000
582 Cu 24.160000 1.770000 5.310000
583 Cu 25.930000 0.000000 5.310000
584 Cu 25.930000 1.770000 3.540000
585 Cu 24.160000 0.000000 7.080000
586 Cu 24.160000 1.770000 8.850000
587 Cu 25.930000 0.000000 8.850000
588 Cu 25.930000 1.770000 7.080000
589 Cu 24.160000 0.000000 10.620000
590 Cu 24.160000 1.770000 12.390000
591 Cu 25.930000 0.000000 12.390000
592 Cu 25.930000 1.770000 10.620000
593 Cu 24.160000 0.000000 14.160000
594 Cu 24.160000 1.770000 15.930000
595 Cu 25.930000 0.000000 15.930000
596 Cu 25.930000 1.770000 14.160000
597 Cu 24.160000 0.000000 17.700000
598 Cu 24.160000 1.770000 19.470000
599 Cu 25.930000 0.000000 19.470000
600 Cu 25.930000 1.770000 17.700000
601 Cu 24.160000 3.540000 0.000000
602 Cu 24.160000 5.310000 1.770000
603 Cu 25.930000 3.540000 1.770000
604 Cu 25.930000 5.310000 0.000000
605 Cu 24.160000 3.540000 3.540000
606 Cu 24.160000 5.310000 5.310000
607 Cu 25.930000 3.540000 5.310000
608 Cu 25.930000 5.310000 3.540000
609 Cu 24.160000 3.540000 7.080000
610 Cu 24.160000 5.310000 8.850000
611 Cu 25.930000 3.540000 8.850000
612 Cu 25.930000 5.310000 7.080000
613 Cu 24.160000 3.540000 10.620000
614 Cu 24.160000 5.310000 12.390000
615 Cu 25.930000 3.540000 12.390000
616 Cu 25.930000 5.310000 10.620000
617 Cu 24.160000 3.540000 14.160000
618 Cu 24.160000 5.310000 15.930000
619 Cu 25.930000 3.540000 15.930000
620 Cu 25.930000 5.310000 14.160000
621 Cu 24.160000 3.540000 17.700000
622 Cu 24.160000 5.310000 19.470000
623 Cu 25.930000 3.540000 19.470000
624 Cu 25.930000 5.310000 17.700000
625 Cu 24.160000 7.080000 0.000000
626 Cu 24.160000 8.850000 1.770000
627 Cu 25.930000 7.080000 1.770000
628 Cu 25.930000 8.850000 0.000000
629 Cu 24.160000 7.080000 3.540000
630 Cu 24.160000 8.850000 5.310000
631 Cu 25.930000 7.080000 5.310000
632 Cu 25.930000 8.850000 3.540000
633 Cu 24.160000 7.080000 7.080000
634 Cu 24.160000 8.850000 8.850000
635 Cu 25.930000 7.080000 8.850000
636 Cu 25.930000 8.850000 7.080000
637 Cu 24.160000 7.080000 10.620000
638 Cu 24.160000 8.850000 12.390000
639 Cu 25.930000 7.080000 12.390000
640 Cu 25.930000 8.850000 10.620000
641 Cu 24.160000 7.080000 14.160000
642 Cu 24.160000 8.850000 15.930000
643 Cu 25.930000 7.080000 15.930000
644 Cu 25.930000 8.850000 14.160000
645 Cu 24.160000 7.080000 17.700000
646 Cu 24.160000 8.850000 19.470000
647 Cu 25.930000 7.080000 19.470000
648 Cu 25.930000 8.850000 17.700000
649 Cu 24.160000 10.620000 0.000000
650 Cu 24.160000 12.390000 1.770000
651 Cu 25.930000 10.620000 1.770000
652 Cu 25.930000 12.390000 0.000000
653 Cu 24.160000 10.620000 3.540000
654 Cu 24.160000 12.390000 5.310000
655 Cu 25.930000 10.620000 5.310000
656 Cu 25.930000 12.390000 3.540000
657 Cu 24.160000 10.620000 7.080000
658 Cu 24.160000 12.390000 8.850000
659 Cu 25.930000 10.620000 8.850000
660 Cu 25.930000 12.390000 7.080000
661 Cu 24.160000 10.620000 10.620000
662 Cu 24.160000 12.390000 12.390000
663 Cu 25.930000 10.620000 12.390000
664 Cu 25.930000 12.390000 10.620000
665 Cu 24.160000 10.620000 14.160000
666 Cu 24.160000 12.390000 15.930000
667 Cu 25.930000 10.620000 15.930000
668 Cu 25.930000 12.390000 14.160000
669 Cu 24.160000 10.620000 17.700000
670 Cu 24.160000 12.390000 19.470000
671 Cu 25.930000 10.620000 19.470000
672 Cu 25.930000 12.390000 17.700000
673 Cu 24.160000 14.160000 0.000000
674 Cu 24.160000 15.930000 1.770000
675 Cu 25.930000 14.160000 1.770000
676 Cu 25.930000 15.930000 0.000000
677 Cu 24.160000 14.160000 3.540000
678 Cu 24.160000 15.930000 5.310000
679 Cu 25.930000 14.160000 5.310000
680 Cu 25.930000 15.930000 3.540000
681 Cu 24.160000 14.160000 7.080000
682 Cu 24.160000 15.930000 8.850000
683 Cu 25.930000 14.160000 8.850000
684 Cu 25.930000 15.930000 7.080000
685 Cu 24.160000 14.160000 10.620000
686 Cu 24.160000 15.930000 12.390000
687 Cu 25.930000 14.160000 12.390000
688 Cu 25.930000 15.930000 10.620000
689 Cu 24.160000 14.160000 14.160000
690 Cu 24.160000 15.930000 15.930000
691 Cu 25.930000 14.160000 15.930000
692 Cu 25.930000 15.930000 14.160000
693 Cu 24.160000 14.160000 17.700000
694 Cu 24.160000 15.930000 19.470000
695 Cu 25.930000 14.160000 19.470000
696 Cu 25.930000 15.930000 17.700000
697 Cu 24.160000 17.700000 0.000000
698 Cu 24.160000 19.470000 1.770000
699 Cu 25.930000 17.700000 1.770000
700 Cu 25.930000 19.470000 0.000000
701 Cu 24.160000 17.700000 3.540000
702 Cu 24.160000 19.470000 5.310000
703 Cu 25.930000 17.700000 5.310000
704 Cu 25.930000 19.470000 3.540000
705 Cu 24.160000 17.700000 7.080000
706 Cu 24.160000 19.470000 8.850000
707 Cu 25.930000 17.700000 8.850000
708 Cu 25.930000 19.470000 7.080000
709 Cu 24.160000 17.700000 10.620000
710 Cu 24.160000 19.470000 12.390000
711 Cu 25.930000 17.700000 12.390000
712 Cu 25.930000 19.470000 10.620000
713 Cu 24.160000 17.700000 14.160000
714 Cu 24.160000 19.470000 15.930000
715 Cu 25.930000 17.700000 15.930000
716 Cu 25.930000 19.470000 14.160000
717 Cu 24.160000 17.700000 17.700000
718 Cu 24.160000 19.470000 19.470000
719 Cu 25.930000 17.700000 19.470000
720 Cu 25.930000 19.470000 17.700000
721 Cu 27.700000 0.000000 0.000000
722 Cu 27.700000 1.770000 1.770000
723 Cu 29.470000 0.000000 1.770000
724 Cu 29.470000 1.770000 0.000000
725 Cu 27.700000 0.000000 3.540000
726 Cu 27.700000 1.770000 5.310000
727 Cu 29.470000 0.000000 5.310000
728 Cu 29.470000 1.770000 3.540000
729 Cu 27.700000 0.000000 7.080000
730 Cu 27.700000 1.770000 8.850000
731 Cu 29.470000 0.000000 8.850000
732 Cu 29.470000 1.770000 7.080000
733 Cu 27.700000 0.000000 10.620000
734 Cu 27.700000 1.770000 12.390000
735 Cu 29.470000 0.000000 12.390000
736 Cu 29.470000 1.770000 10.620000
737 Cu 27.700000 0.000000 14.160000
738 Cu 27.700000 1.770000 15.930000
739 Cu 29.470000 0.000000 15.930000
740 Cu 29.470000 1.770000 14.160000
741 Cu 27.700000 0.000000 17.700000
742 Cu 27.700000 1.770000 19.470000
743 Cu 29.470000 0.000000 19.470000
744 Cu 29.470000 1.770000 17.700000
745 Cu 27.700000 3.540000 0.000000
746 Cu 27.700000 5.310000 1.770000
747 Cu 29.470000 3.540000 1.770000
748 Cu 29.470000 5.310000 0.000000
749 Cu 27.700000 3.540000 3.540000
750 Cu 27.700000 5.310000 5.310000
751 Cu 29.470000 3.540000 5.310000
752 Cu 29.470000 5.310000 3.540000
753 Cu 27.700000 3.540000 7.080000
754 Cu 27.700000 5.310000 8.850000
755 Cu 29.470000 3.540000 8.850000
756 Cu 29.470000 5.310000 7.080000
757 Cu 27.700000 3.540000 10.620000
758 Cu 27.700000 5.310000 12.390000
759 Cu 29.470000 3.540000 12.390000
760 Cu 29.470000 5.310000 10.620000
761 Cu 27.700000 3.540000 14.160000
762 Cu 27.700000 5.310000 15.930000
763 Cu 29.470000 3.540000 15.930000
764 Cu 29.470000 5.310000 14.160000
765 Cu 27.700000 3.540000 17.700000
766 Cu 27.700000 5.310000 19.470000
767 Cu 29.470000 3.540000 19.470000
768 Cu 29.470000 5.310000 17.700000
769 Cu 27.700000 7.080000 0.000000
770 Cu 27.700000 8.850000 1.770000
771 Cu 29.470000 7.080000 1.770000
772 Cu 29.470000 8.850000 0.000000
773 Cu 27.700000 7.080000 3.540000
774 Cu 27.700000 8.850000 5.310000
775 Cu 29.470000 7.080000 5.310000
776 Cu 29.470000 8.850000 3.540000
777 Cu 27.700000 7.080000 7.080000
778 Cu 27.700000 8.850000 8.850000
779 Cu 29.470000 7.080000 8.850000
780 Cu 29.470000 8.850000 7.080000
781 Cu 27.700000 7.080000 10.620000
782 Cu 27.700000 8.850000 12.390000
783 Cu 29.470000 7.080000 12.390000
784 Cu 29.470000 8.850000 10.620000
785 Cu 27.700000 7.080000 14.160000
786 Cu 27.700000 8.850000 15.930000
787 Cu 29.470000 7.080000 15.930000
788 Cu 29.470000 8.850000 14.160000
789 Cu 27.700000 7.080000 17.700000
790 Cu 27.700000 8.850000 19.470000
791 Cu 29.470000 7.080000 19.470000
792 Cu 29.470000 8.850000 17.700000
793 Cu 27.700000 10.620000 0.000000
794 Cu 27.700000 12.390000 1.770000
795 Cu 29.470000 10.620000 1.770000
796 Cu 29.470000 12.390000 0.000000
797 Cu 27.700000 10.620000 3.540000
798 Cu 27.700000 12.390000 5.310000
799 Cu 29.470000 10.620000 5.310000
800 Cu 29.470000 12.390000 3.540000
801 Cu 27.700000 10.620000 7.080000
802 Cu 27.700000 12.390000 8.850000
803 Cu 29.470000 10.620000 8.850000
804 Cu 29.470000 12.390000 7.080000
805 Cu 27.700000 10.620000 10.620000
806 Cu 27.700000 12.390000 12.390000
807 Cu 29.470000 10.620000 12.390000
808 Cu 29.470000 12.390000 10.620000
809 Cu 27.700000 10.620000 14.160000
810 Cu 27.700000 12.390000 15.930000
811 Cu 29.470000 10.620000 15.930000
812 Cu 29.470000 12.390000 14.160000
813 Cu 27.700000 10.620000 17.700000
814 Cu 27.700000 12.390000 19.470000
815 Cu 29.470000 10.620000 19.470000
816 Cu 29.470000 12.390000 17.700000
817 Cu 27.700000 14.160000 0.000000
818 Cu 27.700000 15.930000 1.770000
819 Cu 29.470000 14.160000 1.770000
820 Cu 29.470000 15.930000 0.000000
821 Cu 27.700000 14.160000 3.540000
822 Cu 27.700000 15.930000 5.310000
823 Cu 29.470000 14.160000 5.310000
824 Cu 29.470000 15.930000 3.540000
825 Cu 27.700000 14.160000 7.080000
826 Cu 27.700000 15.930000 8.850000
827 Cu 29.470000 14.160000 8.850000
828 Cu 29.470000 15.930000 7.080000
829 Cu 27.700000 14.160000 10.620000
830 Cu 27.700000 15.930000 12.390000
831 Cu 29.470000 14.160000 12.390000
832 Cu 29.470000 15.930000 10.620000