Crystalline Cu atoms

1014 atoms
1 atom types
0.000000 41.240000 xlo xhi
0.000000 21.240000 ylo yhi
0.000000 21.240000 zlo zhi

Atom Type Labels

1 Cu

Atoms

1 Cu 10.000000 -0.000000 -0.000000
2 Cu 10.000000 1.770000 1.770000
3 Cu 11.770000 -0.000000 1.770000
4 Cu 11.770000 1.770000 -0.000000
5 Cu 10.000000 -0.000000 3.540000
6 Cu 10.000000 1.770000 5.310000
7 Cu 11.770000 -0.000000 5.310000
8 Cu 11.770000 1.770000 3.540000
9 Cu 10.000000 -0.000000 7.080000
10 Cu 10.000000 1.770000 8.850000
11 Cu 11.770000 -0.000000 8.850000
12 Cu 11.770000 1.770000 7.080000
13 Cu 10.000000 -0.000000 10.620000
14 Cu 10.000000 1.770000 12.390000
15 Cu 11.770000 -0.000000 12.390000
16 Cu 11.770000 1.770000 10.620000
17 Cu 10.000000 -0.000000 14.160000
18 Cu 10.000000 1.770000 15.930000
19 Cu 11.770000 -0.000000 15.930000
20 Cu 11.770000 1.770000 14.160000
21 Cu 10.000000 -0.000000 17.700000
22 Cu 10.000000 1.770000 19.470000
23 Cu 11.770000 -0.000000 19.470000
24 Cu 11.770000 1.770000 17.700000
25 Cu 10.000000 -0.000000 21.240000
26 Cu 11.770000 1.770000 21.240000
27 Cu 13.540000 -0.000000 -0.000000
28 Cu 13.540000 1.770000 1.770000
29 Cu 15.310000 -0.000000 1.770000
30 Cu 15.310000 1.770000 -0.000000
31 Cu 13.540000 -0.000000 3.540000
32 Cu 13.540000 1.770000 5.310000
33 Cu 15.310000 -0.000000 5.310000
34 Cu 15.310000 1.770000 3.540000
35 Cu 13.540000 -0.000000 7.080000
36 Cu 13.540000 1.770000 8.850000
37 Cu 15.310000 -0.000000 8.850000
38 Cu 15.310000 1.770000 7.080000
39 Cu 13.540000 -0.000000 10.620000
40 Cu 13.540000 1.770000 12.390000
41 Cu 15.310000 -0.000000 12.390000
42 Cu 15.310000 1.770000 10.620000
43 Cu 13.540000 -0.000000 14.160000
44 Cu 13.540000 1.770000 15.930000
45 Cu 15.310000 -0.000000 15.930000
46 Cu 15.310000 1.770000 14.160000
47 Cu 13.540000 -0.000000 17.700000
48 Cu 13.540000 1.770000 19.470000
49 Cu 15.310000 -0.000000 19.470000
50 Cu 15.310000 1.770000 17.700000
51 Cu 13.540000 -0.000000 21.240000
52 Cu 15.310000 1.770000 21.240000
53 Cu 17.080000 -0.000000 -0.000000
54 Cu 17.080000 1.770000 1.770000
55 Cu 18.850000 -0.000000 1.770000
56 Cu 18.850000 1.770000 -0.000000
57 Cu 17.080000 -0.000000 3.540000
58 Cu 17.080000 1.770000 5.310000
59 Cu 18.850000 -0.000000 5.310000
60 Cu 18.850000 1.770000 3.540000
61 Cu 17.080000 -0.000000 7.080000
62 Cu 17.080000 1.770000 8.850000
63 Cu 18.850000 -0.000000 8.850000
64 Cu 18.850000 1.770000 7.080000
65 Cu 17.080000 -0.000000 10.620000
66 Cu 17.080000 1.770000 12.390000
67 Cu 18.850000 -0.000000 12.390000
68 Cu 18.850000 1.770000 10.620000
69 Cu 17.080000 -0.000000 14.160000
70 Cu 17.080000 1.770000 15.930000
71 Cu 18.850000 -0.000000 15.930000
72 Cu 18.850000 1.770000 14.160000
73 Cu 17.080000 -0.000000 17.700000
74 Cu 17.080000 1.770000 19.470000
75 Cu 18.850000 -0.000000 19.470000
76 Cu 18.850000 1.770000 17.700000
77 Cu 17.080000 -0.000000 21.240000
78 Cu 18.850000 1.770000 21.240000
79 Cu 10.000000 3.540000 -0.000000
80 Cu 10.000000 5.310000 1.770000
81 Cu 11.770000 3.540000 1.770000
82 Cu 11.770000 5.310000 -0.000000
83 Cu 10.000000 3.540000 3.540000
84 Cu 10.000000 5.310000 5.310000
85 Cu 11.770000 3.540000 5.310000
86 Cu 11.770000 5.310000 3.540000
87 Cu 10.000000 3.540000 7.080000
88 Cu 10.000000 5.310000 8.850000
89 Cu 11.770000 3.540000 8.850000
90 Cu 11.770000 5.310000 7.080000
91 Cu 10.000000 3.540000 10.620000
92 Cu 10.000000 5.310000 12.390000
93 Cu 11.770000 3.540000 12.390000
94 Cu 11.770000 5.310000 10.620000
95 Cu 10.000000 3.540000 14.160000
96 Cu 10.000000 5.310000 15.930000
97 Cu 11.770000 3.540000 15.930000
98 Cu 11.770000 5.310000 14.160000
99 Cu 10.000000 3.540000 17.700000
100 Cu 10.000000 5.310000 19.470000
101 Cu 11.770000 3.540000 19.470000
102 Cu 11.770000 5.310000 17.700000
103 Cu 10.000000 3.540000 21.240000
104 Cu 11.770000 5.310000 21.240000
105 Cu 13.540000 3.540000 -0.000000
106 Cu 13.540000 5.310000 1.770000
107 Cu 15.310000 3.540000 1.770000
108 Cu 15.310000 5.310000 -0.000000
109 Cu 13.540000 3.540000 3.540000
110 Cu 13.540000 5.310000 5.310000
111 Cu 15.310000 3.540000 5.310000
112 Cu 15.310000 5.310000 3.540000
113 Cu 13.540000 3.540000 7.080000
114 Cu 13.540000 5.310000 8.850000
115 Cu 15.310000 3.540000 8.850000
116 Cu 15.310000 5.310000 7.080000
117 Cu 13.540000 3.540000 10.620000
118 Cu 13.540000 5.310000 12.390000
119 Cu 15.310000 3.540000 12.390000
120 Cu 15.310000 5.310000 10.620000
121 Cu 13.540000 3.540000 14.160000
122 Cu 13.540000 5.310000 15.930000
123 Cu 15.310000 3.540000 15.930000
124 Cu 15.310000 5.310000 14.160000
125 Cu 13.540000 3.540000 17.700000
126 Cu 13.540000 5.310000 19.470000
127 Cu 15.310000 3.540000 19.470000
128 Cu 15.310000 5.310000 17.700000
129 Cu 13.540000 3.540000 21.240000
130 Cu 15.310000 5.310000 21.240000
131 Cu 17.080000 3.540000 -0.000000
132 Cu 17.080000 5.310000 1.770000
133 Cu 18.850000 3.540000 1.770000
134 Cu 18.850000 5.310000 -0.000000
135 Cu 17.080000 3.540000 3.540000
136 Cu 17.080000 5.310000 5.310000
137 Cu 18.850000 3.540000 5.310000
138 Cu 18.850000 5.310000 3.540000
139 Cu 17.080000 3.540000 7.080000
140 Cu 17.080000 5.310000 8.850000
141 Cu 18.850000 3.540000 8.850000
142 Cu 18.850000 5.310000 7.080000
143 Cu 17.080000 3.540000 10.620000
144 Cu 17.080000 5.310000 12.390000
145 Cu 18.850000 3.540000 12.390000
146 Cu 18.850000 5.310000 10.620000
147 Cu 17.080000 3.540000 14.160000
148 Cu 17.080000 5.310000 15.930000
149 Cu 18.850000 3.540000 15.930000
150 Cu 18.850000 5.310000 14.160000
151 Cu 17.080000 3.540000 17.700000
152 Cu 17.080000 5.310000 19.470000
153 Cu 18.850000 3.540000 19.470000
154 Cu 18.850000 5.310000 17.700000
155 Cu 17.080000 3.540000 21.240000
156 Cu 18.850000 5.310000 21.240000
157 Cu 10.000000 7.080000 -0.000000
158 Cu 10.000000 8.850000 1.770000
159 Cu 11.770000 7.080000 1.770000
160 Cu 11.770000 8.850000 -0.000000
161 Cu 10.000000 7.080000 3.540000
162 Cu 10.000000 8.850000 5.310000
163 Cu 11.770000 7.080000 5.310000
164 Cu 11.770000 8.850000 3.540000
165 Cu 10.000000 7.080000 7.080000
166 Cu 10.000000 8.850000 8.850000
167 Cu 11.770000 7.080000 8.850000
168 Cu 11.770000 8.850000 7.080000
169 Cu 10.000000 7.080000 10.620000
170 Cu 10.000000 8.850000 12.390000
171 Cu 11.770000 7.080000 12.390000
172 Cu 11.770000 8.850000 10.620000
173 Cu 10.000000 7.080000 14.160000
174 Cu 10.000000 8.850000 15.930000
175 Cu 11.770000 7.080000 15.930000
176 Cu 11.770000 8.850000 14.160000
177 Cu 10.000000 7.080000 17.700000
178 Cu 10.000000 8.850000 19.470000
179 Cu 11.770000 7.080000 19.470000
180 Cu 11.770000 8.850000 17.700000
181 Cu 10.000000 7.080000 21.240000
182 Cu 11.770000 8.850000 21.240000
183 Cu 13.540000 7.080000 -0.000000
184 Cu 13.540000 8.850000 1.770000
185 Cu 15.310000 7.080000 1.770000
186 Cu 15.310000 8.850000 -0.000000
187 Cu 13.540000 7.080000 3.540000
188 Cu 13.540000 8.850000 5.310000
189 Cu 15.310000 7.080000 5.310000
190 Cu 15.310000 8.850000 3.540000
191 Cu 13.540000 7.080000 7.080000
192 Cu 13.540000 8.850000 8.850000
193 Cu 15.310000 7.080000 8.850000
194 Cu 15.310000 8.850000 7.080000
195 Cu 13.540000 7.080000 10.620000
196 Cu 13.540000 8.850000 12.390000
197 Cu 15.310000 7.080000 12.390000
198 Cu 15.310000 8.850000 10.620000
199 Cu 13.540000 7.080000 14.160000
200 Cu 13.540000 8.850000 15.930000
201 Cu 15.310000 7.080000 15.930000
202 Cu 15.310000 8.850000 14.160000
203 Cu 13.540000 7.080000 17.700000
204 Cu 13.540000 8.850000 19.470000
205 Cu 15.310000 7.080000 19.470000
206 Cu 15.310000 8.850000 17.700000
207 Cu 13.540000 7.080000 21.240000
208 Cu 15.310000 8.850000 21.240000
209 Cu 17.080000 7.080000 -0.000000
210 Cu 17.080000 8.850000 1.770000
211 Cu 18.850000 7.080000 1.770000
212 Cu 18.850000 8.850000 -0.000000
213 Cu 17.080000 7.080000 3.540000
214 Cu 17.080000 8.850000 5.310000
215 Cu 18.850000 7.080000 5.310000
216 Cu 18.850000 8.850000 3.540000
217 Cu 17.080000 7.080000 7.080000
218 Cu 17.080000 8.850000 8.850000
219 Cu 18.850000 7.080000 8.850000
220 Cu 18.850000 8.850000 7.080000
221 Cu 17.080000 7.080000 10.620000
222 Cu 17.080000 8.850000 12.390000
223 Cu 18.850000 7.080000 12.390000
224 Cu 18.850000 8.850000 10.620000
225 Cu 17.080000 7.080000 14.160000
226 Cu 17.080000 8.850000 15.930000
227 Cu 18.850000 7.080000 15.930000
228 Cu 18.850000 8.850000 14.160000
229 Cu 17.080000 7.080000 17.700000
230 Cu 17.080000 8.850000 19.470000
231 Cu 18.850000 7.080000 19.470000
232 Cu 18.850000 8.850000 17.700000
233 Cu 17.080000 7.080000 21.240000
234 Cu 18.850000 8.850000 21.240000
235 Cu 10.000000 10.620000 -0.000000
236 Cu 10.000000 12.390000 1.770000
237 Cu 11.770000 10.620000 1.770000
238 Cu 11.770000 12.390000 -0.000000
239 Cu 10.000000 10.620000 3.540000
240 Cu 10.000000 12.390000 5.310000
241 Cu 11.770000 10.620000 5.310000
242 Cu 11.770000 12.390000 3.540000
243 Cu 10.000000 10.620000 7.080000
244 Cu 10.000000 12.390000 8.850000
245 Cu 11.770000 10.620000 8.850000
246 Cu 11.770000 12.390000 7.080000
247 Cu 10.000000 10.620000 10.620000
248 Cu 10.000000 12.390000 12.390000
249 Cu 11.770000 10.620000 12.390000
250 Cu 11.770000 12.390000 10.620000
251 Cu 10.000000 10.620000 14.160000
252 Cu 10.000000 12.390000 15.930000
253 Cu 11.770000 10.620000 15.930000
254 Cu 11.770000 12.390000 14.160000
255 Cu 10.000000 10.620000 17.700000
256 Cu 10.000000 12.390000 19.470000
257 Cu 11.770000 10.620000 19.470000
258 Cu 11.770000 12.390000 17.700000
259 Cu 10.000000 10.620000 21.240000
260 Cu 11.770000 12.390000 21.240000
261 Cu 13.540000 10.620000 -0.000000
262 Cu 13.540000 12.390000 1.770000
263 Cu 15.310000 10.620000 1.770000
264 Cu 15.310000 12.390000 -0.000000
265 Cu 13.540000 10.620000 3.540000
266 Cu 13.540000 12.390000 5.310000
267 Cu 15.310000 10.620000 5.310000
268 Cu 15.310000 12.390000 3.540000
269 Cu 13.540000 10.620000 7.080000
270 Cu 13.540000 12.390000 8.850000
271 Cu 15.310000 10.620000 8.850000
272 Cu 15.310000 12.390000 7.080000
273 Cu 13.540000 10.620000 10.620000
274 Cu 13.540000 12.390000 12.390000
275 Cu 15.310000 10.620000 12.390000
276 Cu 15.310000 12.390000 10.620000
277 Cu 13.540000 10.620000 14.160000
278 Cu 13.540000 12.390000 15.930000
279 Cu 15.310000 10.620000 15.930000
280 Cu 15.310000 12.390000 14.160000
281 Cu 13.540000 10.620000 17.700000
282 Cu 13.540000 12.390000 19.470000
283 Cu 15.310000 10.620000 19.470000
284 Cu 15.310000 12.390000 17.700000
285 Cu 13.540000 10.620000 21.240000
286 Cu 15.310000 12.390000 21.240000
287 Cu 17.080000 10.620000 -0.000000
288 Cu 17.080000 12.390000 1.770000
289 Cu 18.850000 10.620000 1.770000
290 Cu 18.850000 12.390000 -0.000000
291 Cu 17.080000 10.620000 3.540000
292 Cu 17.080000 12.390000 5.310000
293 Cu 18.850000 10.620000 5.310000
294 Cu 18.850000 12.390000 3.540000
295 Cu 17.080000 10.620000 7.080000
296 Cu 17.080000 12.390000 8.850000
297 Cu 18.850000 10.620000 8.850000
298 Cu 18.850000 12.390000 7.080000
299 Cu 17.080000 10.620000 10.620000
300 Cu 17.080000 12.390000 12.390000
301 Cu 18.850000 10.620000 12.390000
302 Cu 18.850000 12.390000 10.620000
303 Cu 17.080000 10.620000 14.160000
304 Cu 17.080000 12.390000 15.930000
305 Cu 18.850000 10.620000 15.930000
306 Cu 18.850000 12.390000 14.160000
307 Cu 17.080000 10.620000 17.700000
308 Cu 17.080000 12.390000 19.470000
309 Cu 18.850000 10.620000 19.470000
310 Cu 18.850000 12.390000 17.700000
311 Cu 17.080000 10.620000 21.240000
312 Cu 18.850000 12.390000 21.240000
313 Cu 10.000000 14.160000 -0.000000
314 Cu 10.000000 15.930000 1.770000
315 Cu 11.770000 14.160000 1.770000
316 Cu 11.770000 15.930000 -0.000000
317 Cu 10.000000 14.160000 3.540000
318 Cu 10.000000 15.930000 5.310000
319 Cu 11.770000 14.160000 5.310000
320 Cu 11.770000 15.930000 3.540000
321 Cu 10.000000 14.160000 7.080000
322 Cu 10.000000 15.930000 8.850000
323 Cu 11.770000 14.160000 8.850000
324 Cu 11.770000 15.930000 7.080000
325 Cu 10.000000 14.160000 10.620000
326 Cu 10.000000 15.930000 12.390000
327 Cu 11.770000 14.160000 12.390000
328 Cu 11.770000 15.930000 10.620000
329 Cu 10.000000 14.160000 14.160000
330 Cu 10.000000 15.930000 15.930000
331 Cu 11.770000 14.160000 15.930000
332 Cu 11.770000 15.930000 14.160000
333 Cu 10.000000 14.160000 17.700000
334 Cu 10.000000 15.930000 19.470000
335 Cu 11.770000 14.160000 19.470000
336 Cu 11.770000 15.930000 17.700000
337 Cu 10.000000 14.160000 21.240000
338 Cu 11.770000 15.930000 21.240000
339 Cu 13.540000 14.160000 -0.000000
340 Cu 13.540000 15.930000 1.770000
341 Cu 15.310000 14.160000 1.770000
342 Cu 15.310000 15.930000 -0.000000
343 Cu 13.540000 14.160000 3.540000
344 Cu 13.540000 15.930000 5.310000
345 Cu 15.310000 14.160000 5.310000
346 Cu 15.310000 15.930000 3.540000
347 Cu 13.540000 14.160000 7.080000
348 Cu 13.540000 15.930000 8.850000
349 Cu 15.310000 14.160000 8.850000
350 Cu 15.310000 15.930000 7.080000
351 Cu 13.540000 14.160000 10.620000
352 Cu 13.540000 15.930000 12.390000
353 Cu 15.310000 14.160000 12.390000
354 Cu 15.310000 15.930000 10.620000
355 Cu 13.540000 14.160000 14.160000
356 Cu 13.540000 15.930000 15.930000
357 Cu 15.310000 14.160000 15.930000
358 Cu 15.310000 15.930000 14.160000
359 Cu 13.540000 14.160000 17.700000
360 Cu 13.540000 15.930000 19.470000
361 Cu 15.310000 14.160000 19.470000
362 Cu 15.310000 15.930000 17.700000
363 Cu 13.540000 14.160000 21.240000
364 Cu 15.310000 15.930000 21.240000
365 Cu 17.080000 14.160000 -0.000000
366 Cu 17.080000 15.930000 1.770000
367 Cu 18.850000 14.160000 1.770000
368 Cu 18.850000 15.930000 -0.000000
369 Cu 17.080000 14.160000 3.540000
370 Cu 17.080000 15.930000 5.310000
371 Cu 18.850000 14.160000 5.310000
372 Cu 18.850000 15.930000 3.540000
373 Cu 17.080000 14.160000 7.080000
374 Cu 17.080000 15.930000 8.850000
375 Cu 18.850000 14.160000 8.850000
376 Cu 18.850000 15.930000 7.080000
377 Cu 17.080000 14.160000 10.620000
378 Cu 17.080000 15.930000 12.390000
379 Cu 18.850000 14.160000 12.390000
380 Cu 18.850000 15.930000 10.620000
381 Cu 17.080000 14.160000 14.160000
382 Cu 17.080000 15.930000 15.930000
383 Cu 18.850000 14.160000 15.930000
384 Cu 18.850000 15.930000 14.160000
385 Cu 17.080000 14.160000 17.700000
386 Cu 17.080000 15.930000 19.470000
387 Cu 18.850000 14.160000 19.470000
388 Cu 18.850000 15.930000 17.700000
389 Cu 17.080000 14.160000 21.240000
390 Cu 18.850000 15.930000 21.240000
391 Cu 10.000000 17.700000 -0.000000
392 Cu 10.000000 19.470000 1.770000
393 Cu 11.770000 17.700000 1.770000
394 Cu 11.770000 19.470000 -0.000000
395 Cu 10.000000 17.700000 3.540000
396 Cu 10.000000 19.470000 5.310000
397 Cu 11.770000 17.700000 5.310000
398 Cu 11.770000 19.470000 3.540000
399 Cu 10.000000 17.700000 7.080000
400 Cu 10.000000 19.470000 8.850000
401 Cu 11.770000 17.700000 8.850000
402 Cu 11.770000 19.470000 7.080000
403 Cu 10.000000 17.700000 10.620000
404 Cu 10.000000 19.470000 12.390000
405 Cu 11.770000 17.700000 12.390000
406 Cu 11.770000 19.470000 10.620000
407 Cu 10.000000 17.700000 14.160000
408 Cu 10.000000 19.470000 15.930000
409 Cu 11.770000 17.700000 15.930000
410 Cu 11.770000 19.470000 14.160000
411 Cu 10.000000 17.700000 17.700000
412 Cu 10.000000 19.470000 19.470000
413 Cu 11.770000 17.700000 19.470000
414 Cu 11.770000 19.470000 17.700000
415 Cu 10.000000 17.700000 21.240000
416 Cu 11.770000 19.470000 21.240000
417 Cu 13.540000 17.700000 -0.000000
418 Cu 13.540000 19.470000 1.770000
419 Cu 15.310000 17.700000 1.770000
420 Cu 15.310000 19.470000 -0.000000
421 Cu 13.540000 17.700000 3.540000
422 Cu 13.540000 19.470000 5.310000
423 Cu 15.310000 17.700000 5.310000
424 Cu 15.310000 19.470000 3.540000
425 Cu 13.540000 17.700000 7.080000
426 Cu 13.540000 19.470000 8.850000
427 Cu 15.310000 17.700000 8.850000
428 Cu 15.310000 19.470000 7.080000
429 Cu 13.540000 17.700000 10.620000
430 Cu 13.540000 19.470000 12.390000
431 Cu 15.310000 17.700000 12.390000
432 Cu 15.310000 19.470000 10.620000
433 Cu 13.540000 17.700000 14.160000
434 Cu 13.540000 19.470000 15.930000
435 Cu 15.310000 17.700000 15.930000
436 Cu 15.310000 19.470000 14.160000
437 Cu 13.540000 17.700000 17.700000
438 Cu 13.540000 19.470000 19.470000
439 Cu 15.310000 17.700000 19.470000
440 Cu 15.310000 19.470000 17.700000
441 Cu 13.540000 17.700000 21.240000
442 Cu 15.310000 19.470000 21.240000
443 Cu 17.080000 17.700000 -0.000000
444 Cu 17.080000 19.470000 1.770000
445 Cu 18.850000 17.700000 1.770000
446 Cu 18.850000 19.470000 -0.000000
447 Cu 17.080000 17.700000 3.540000
448 Cu 17.080000 19.470000 5.310000
449 Cu 18.850000 17.700000 5.310000
450 Cu 18.850000 19.470000 3.540000
451 Cu 17.080000 17.700000 7.080000
452 Cu 17.080000 19.470000 8.850000
453 Cu 18.850000 17.700000 8.850000
454 Cu 18.850000 19.470000 7.080000
455 Cu 17.080000 17.700000 10.620000
456 Cu 17.080000 19.470000 12.390000
457 Cu 18.850000 17.700000 12.390000
458 Cu 18.850000 19.470000 10.620000
459 Cu 17.080000 17.700000 14.160000
460 Cu 17.080000 19.470000 15.930000
461 Cu 18.850000 17.700000 15.930000
462 Cu 18.850000 19.470000 14.160000
463 Cu 17.080000 17.700000 17.700000
464 Cu 17.080000 19.470000 19.470000
465 Cu 18.850000 17.700000 19.470000
466 Cu 18.850000 19.470000 17.700000
467 Cu 17.080000 17.700000 21.240000
468 Cu 18.850000 19.470000 21.240000
469 Cu 10.000000 21.240000 -0.000000
470 Cu 11.770000 21.240000 1.770000
471 Cu 10.000000 21.240000 3.540000
472 Cu 11.770000 21.240000 5.310000
473 Cu 10.000000 21.240000 7.080000
474 Cu 11.770000 21.240000 8.850000
475 Cu 10.000000 21.240000 10.620000
476 Cu 11.770000 21.240000 12.390000
477 Cu 10.000000 21.240000 14.160000
478 Cu 11.770000 21.240000 15.930000
479 Cu 10.000000 21.240000 17.700000
480 Cu 11.770000 21.240000 19.470000
481 Cu 10.000000 21.240000 21.240000
482 Cu 13.540000 21.240000 -0.000000
483 Cu 15.310000 21.240000 1.770000
484 Cu 13.540000 21.240000 3.540000
485 Cu 15.310000 21.240000 5.310000
486 Cu 13.540000 21.240000 7.080000
487 Cu 15.310000 21.240000 8.850000
488 Cu 13.540000 21.240000 10.620000
489 Cu 15.310000 21.240000 12.390000
490 Cu 13.540000 21.240000 14.160000
491 Cu 15.310000 21.240000 15.930000
492 Cu 13.540000 21.240000 17.700000
493 Cu 15.310000 21.240000 19.470000
494 Cu 13.540000 21.240000 21.240000
495 Cu 17.080000 21.240000 -0.000000
496 Cu 18.850000 21.240000 1.770000
497 Cu 17.080000 21.240000 3.540000
498 Cu 18.850000 21.240000 5.310000
499 Cu 17.080000 21.240000 7.080000
500 Cu 18.850000 21.240000 8.850000
501 Cu 17.080000 21.240000 10.620000
502 Cu 18.850000 21.240000 12.390000
503 Cu 17.080000 21.240000 14.160000
504 Cu 18.850000 21.240000 15.930000
505 Cu 17.080000 21.240000 17.700000
506 Cu 18.850000 21.240000 19.470000
507 Cu 17.080000 21.240000 21.240000
508 Cu 20.620000 -0.000000 -0.000000
509 Cu 20.620000 1.770000 1.770000
510 Cu 22.390000 -0.000000 1.770000
511 Cu 22.390000 1.770000 -0.000000
512 Cu 20.620000 -0.000000 3.540000
513 Cu 20.620000 1.770000 5.310000
514 Cu 22.390000 -0.000000 5.310000
515 Cu 22.390000 1.770000 3.540000
516 Cu 20.620000 -0.000000 7.080000
517 Cu 20.620000 1.770000 8.850000
518 Cu 22.390000 -0.000000 8.850000
519 Cu 22.390000 1.770000 7.080000
520 Cu 20.620000 -0.000000 10.620000
521 Cu 20.620000 1.770000 12.390000
522 Cu 22.390000 -0.000000 12.390000
523 Cu 22.390000 1.770000 10.620000
524 Cu 20.620000 -0.000000 14.160000
525 Cu 20.620000 1.770000 15.930000
526 Cu 22.390000 -0.000000 15.930000
527 Cu 22.390000 1.770000 14.160000
528 Cu 20.620000 -0.000000 17.700000
529 Cu 20.620000 1.770000 19.470000
530 Cu 22.390000 -0.000000 19.470000
531 Cu 22.390000 1.770000 17.700000
532 Cu 20.620000 -0.000000 21.240000
533 Cu 22.390000 1.770000 21.240000
534 Cu 24.160000 -0.000000 -0.000000
535 Cu 24.160000 1.770000 1.770000
536 Cu 25.930000 -0.000000 1.770000
537 Cu 25.930000 1.770000 -0.000000
538 Cu 24.160000 -0.000000 3.540000
539 Cu 24.160000 1.770000 5.310000
540 Cu 25.930000 -0.000000 5.310000
541 Cu 25.930000 1.770000 3.540000
542 Cu 24.160000 -0.000000 7.080000
543 Cu 24.160000 1.770000 8.850000
544 Cu 25.930000 -0.000000 8.850000
545 Cu 25.930000 1.770000 7.080000
546 Cu 24.160000 -0.000000 10.620000
547 Cu 24.160000 1.770000 12.390000
548 Cu 25.930000 -0.000000 12.390000
549 Cu 25.930000 1.770000 10.620000
550 Cu 24.160000 -0.000000 14.160000
551 Cu 24.160000 1.770000 15.930000
552 Cu 25.930000 -0.000000 15.930000
553 Cu 25.930000 1.770000 14.160000
554 Cu 24.160000 -0.000000 17.700000
555 Cu 24.160000 1.770000 19.470000
556 Cu 25.930000 -0.000000 19.470000
557 Cu 25.930000 1.770000 17.700000
558 Cu 24.160000 -0.000000 21.240000
559 Cu 25.930000 1.770000 21.240000
560 Cu 27.700000 -0.000000 -0.000000
561 Cu 27.700000 1.770000 1.770000
562 Cu 29.470000 -0.000000 1.770000
563 Cu 29.470000 1.770000 -0.000000
564 Cu 27.700000 -0.000000 3.540000
565 Cu 27.700000 1.770000 5.310000
566 Cu 29.470000 -0.000000 5.310000
567 Cu 29.470000 1.770000 3.540000
568 Cu 27.700000 -0.000000 7.080000
569 Cu 27.700000 1.770000 8.850000
570 Cu 29.470000 -0.000000 8.850000
571 Cu 29.470000 1.770000 7.080000
572 Cu 27.700000 -0.000000 10.620000
573 Cu 27.700000 1.770000 12.390000
574 Cu 29.470000 -0.000000 12.390000
575 Cu 29.470000 1.770000 10.620000
576 Cu 27.700000 -0.000000 14.160000
577 Cu 27.700000 1.770000 15.930000
578 Cu 29.470000 -0.000000 15.930000
579 Cu 29.470000 1.770000 14.160000
580 Cu 27.700000 -0.000000 17.700000
581 Cu 27.700000 1.770000 19.470000
582 Cu 29.470000 -0.000000 19.470000
583 Cu 29.470000 1.770000 17.700000
584 Cu 27.700000 -0.000000 21.240000
585 Cu 29.470000 1.770000 21.240000
586 Cu 20.620000 3.540000 -0.000000
587 Cu 20.620000 5.310000 1.770000
588 Cu 22.390000 3.540000 1.770000
589 Cu 22.390000 5.310000 -0.000000
590 Cu 20.620000 3.540000 3.540000
591 Cu 20.620000 5.310000 5.310000
592 Cu 22.390000 3.540000 5.310000
593 Cu 22.390000 5.310000 3.540000
594 Cu 20.620000 3.540000 7.080000
595 Cu 20.620000 5.310000 8.850000
596 Cu 22.390000 3.540000 8.850000
597 Cu 22.390000 5.310000 7.080000
598 Cu 20.620000 3.540000 10.620000
599 Cu 20.620000 5.310000 12.390000
600 Cu 22.390000 3.540000 12.390000
601 Cu 22.390000 5.310000 10.620000
602 Cu 20.620000 3.540000 14.160000
603 Cu 20.620000 5.310000 15.930000
604 Cu 22.390000 3.540000 15.930000
605 Cu 22.390000 5.310000 14.160000
606 Cu 20.620000 3.540000 17.700000
607 Cu 20.620000 5.310000 19.470000
608 Cu 22.390000 3.540000 19.470000
609 Cu 22.390000 5.310000 17.700000
610 Cu 20.620000 3.540000 21.240000
611 Cu 22.390000 5.310000 21.240000
612 Cu 24.160000 3.540000 -0.000000
613 Cu 24.160000 5.310000 1.770000
614 Cu 25.930000 3.540000 1.770000
615 Cu 25.930000 5.310000 -0.000000
616 Cu 24.160000 3.540000 3.540000
617 Cu 24.160000 5.310000 5.310000
618 Cu 25.930000 3.540000 5.310000
619 Cu 25.930000 5.310000 3.540000
620 Cu 24.160000 3.540000 7.080000
621 Cu 24.160000 5.310000 8.850000
622 Cu 25.930000 3.540000 8.850000
623 Cu 25.930000 5.310000 7.080000
624 Cu 24.160000 3.540000 10.620000
625 Cu 24.160000 5.310000 12.390000
626 Cu 25.930000 3.540000 12.390000
627 Cu 25.930000 5.310000 10.620000
628 Cu 24.160000 3.540000 14.160000
629 Cu 24.160000 5.310000 15.930000
630 Cu 25.930000 3.540000 15.930000
631 Cu 25.930000 5.310000 14.160000
632 Cu 24.160000 3.540000 17.700000
633 Cu 24.160000 5.310000 19.470000
634 Cu 25.930000 3.540000 19.470000
635 Cu 25.930000 5.310000 17.700000
636 Cu 24.160000 3.540000 21.240000
637 Cu 25.930000 5.310000 21.240000
638 Cu 27.700000 3.540000 -0.000000
639 Cu 27.700000 5.310000 1.770000
640 Cu 29.470000 3.540000 1.770000
641 Cu 29.470000 5.310000 -0.000000
642 Cu 27.700000 3.540000 3.540000
643 Cu 27.700000 5.310000 5.310000
644 Cu 29.470000 3.540000 5.310000
645 Cu 29.470000 5.310000 3.540000
646 Cu 27.700000 3.540000 7.080000
647 Cu 27.700000 5.310000 8.850000
648 Cu 29.470000 3.540000 8.850000
649 Cu 29.470000 5.310000 7.080000
650 Cu 27.700000 3.540000 10.620000
651 Cu 27.700000 5.310000 12.390000
652 Cu 29.470000 3.540000 12.390000
653 Cu 29.470000 5.310000 10.620000
654 Cu 27.700000 3.540000 14.160000
655 Cu 27.700000 5.310000 15.930000
656 Cu 29.470000 3.540000 15.930000
657 Cu 29.470000 5.310000 14.160000
658 Cu 27.700000 3.540000 17.700000
659 Cu 27.700000 5.310000 19.470000
660 Cu 29.470000 3.540000 19.470000
661 Cu 29.470000 5.310000 17.700000
662 Cu 27.700000 3.540000 21.240000
663 Cu 29.470000 5.310000 21.240000
664 Cu 20.620000 7.080000 -0.000000
665 Cu 20.620000 8.850000 1.770000
666 Cu 22.390000 7.080000 1.770000
667 Cu 22.390000 8.850000 -0.000000
668 Cu 20.620000 7.080000 3.540000
669 Cu 20.620000 8.850000 5.310000
670 Cu 22.390000 7.080000 5.310000
671 Cu 22.390000 8.850000 3.540000
672 Cu 20.620000 7.080000 7.080000
673 Cu 20.620000 8.850000 8.850000
674 Cu 22.390000 7.080000 8.850000
675 Cu 22.390000 8.850000 7.080000
676 Cu 20.620000 7.080000 10.620000
677 Cu 20.620000 8.850000 12.390000
678 Cu 22.390000 7.080000 12.390000
679 Cu 22.390000 8.850000 10.620000
680 Cu 20.620000 7.080000 14.160000
681 Cu 20.620000 8.850000 15.930000
682 Cu 22.390000 7.080000 15.930000
683 Cu 22.390000 8.850000 14.160000
684 Cu 20.620000 7.080000 17.700000
685 Cu 20.620000 8.850000 19.470000
686 Cu 22.390000 7.080000 19.470000
687 Cu 22.390000 8.850000 17.700000
688 Cu 20.620000 7.080000 21.240000
689 Cu 22.390000 8.850000 21.240000
690 Cu 24.160000 7.080000 -0.000000
691 Cu 24.160000 8.850000 1.770000
692 Cu 25.930000 7.080000 1.770000
693 Cu 25.930000 8.850000 -0.000000
694 Cu 24.160000 7.080000 3.540000
695 Cu 24.160000 8.850000 5.310000
696 Cu 25.930000 7.080000 5.310000
697 Cu 25.930000 8.850000 3.540000
698 Cu 24.160000 7.080000 7.080000
699 Cu 24.160000 8.850000 8.850000
700 Cu 25.930000 7.080000 8.850000
701 Cu 25.930000 8.850000 7.080000
702 Cu 24.160000 7.080000 10.620000
703 Cu 24.160000 8.850000 12.390000
704 Cu 25.930000 7.080000 12.390000
705 Cu 25.930000 8.850000 10.620000
706 Cu 24.160000 7.080000 14.160000
707 Cu 24.160000 8.850000 15.930000
708 Cu 25.930000 7.080000 15.930000
709 Cu 25.930000 8.850000 14.160000
710 Cu 24.160000 7.080000 17.700000
711 Cu 24.160000 8.850000 19.470000
712 Cu 25.930000 7.080000 19.470000
713 Cu 25.930000 8.850000 17.700000
714 Cu 24.160000 7.080000 21.240000
715 Cu 25.930000 8.850000 21.240000
716 Cu 27.700000 7.080000 -0.000000
717 Cu 27.700000 8.850000 1.770000
718 Cu 29.470000 7.080000 1.770000
719 Cu 29.470000 8.850000 -0.000000
720 Cu 27.700000 7.080000 3.540000
721 Cu 27.700000 8.850000 5.310000
722 Cu 29.470000 7.080000 5.310000
723 Cu 29.470000 8.850000 3.540000
724 Cu 27.700000 7.080000 7.080000
725 Cu 27.700000 8.850000 8.850000
726 Cu 29.470000 7.080000 8.850000
727 Cu 29.470000 8.850000 7.080000
728 Cu 27.700000 7.080000 10.620000
729 Cu 27.700000 8.850000 12.390000
730 Cu 29.470000 7.080000 12.390000
731 Cu 29.470000 8.850000 10.620000
732 Cu 27.700000 7.080000 14.160000
733 Cu 27.700000 8.850000 15.930000
734 Cu 29.470000 7.080000 15.930000
735 Cu 29.470000 8.850000 14.160000
736 Cu 27.700000 7.080000 17.700000
737 Cu 27.700000 8.850000 19.470000
738 Cu 29.470000 7.080000 19.470000
739 Cu 29.470000 8.850000 17.700000
740 Cu 27.700000 7.080000 21.240000
741 Cu 29.470000 8.850000 21.240000
742 Cu 20.620000 10.620000 -0.000000
743 Cu 20.620000 12.390000 1.770000
744 Cu 22.390000 10.620000 1.770000
745 Cu 22.390000 12.390000 -0.000000
746 Cu 20.620000 10.620000 3.540000
747 Cu 20.620000 12.390000 5.310000
748 Cu 22.390000 10.620000 5.310000
749 Cu 22.390000 12.390000 3.540000
750 Cu 20.620000 10.620000 7.080000
751 Cu 20.620000 12.390000 8.850000
752 Cu 22.390000 10.620000 8.850000
753 Cu 22.390000 12.390000 7.080000
754 Cu 20.620000 10.620000 10.620000
755 Cu 20.620000 12.390000 12.390000
756 Cu 22.390000 10.620000 12.390000
757 Cu 22.390000 12.390000 10.620000
758 Cu 20.620000 10.620000 14.160000
759 Cu 20.620000 12.390000 15.930000
760 Cu 22.390000 10.620000 15.930000
761 Cu 22.390000 12.390000 14.160000
762 Cu 20.620000 10.620000 17.700000
763 Cu 20.620000 12.390000 19.470000
764 Cu 22.390000 10.620000 19.470000
765 Cu 22.390000 12.390000 17.700000
766 Cu 20.620000 10.620000 21.240000
767 Cu 22.390000 12.390000 21.240000
768 Cu 24.160000 10.620000 -0.000000
769 Cu 24.160000 12.390000 1.770000
770 Cu 25.930000 10.620000 1.770000
771 Cu 25.930000 12.390000 -0.000000
772 Cu 24.160000 10.620000 3.540000
773 Cu 24.160000 12.390000 5.310000
774 Cu 25.930000 10.620000 5.310000
775 Cu 25.930000 12.390000 3.540000
776 Cu 24.160000 10.620000 7.080000
777 Cu 24.160000 12.390000 8.850000
778 Cu 25.930000 10.620000 8.850000
779 Cu 25.930000 12.390000 7.080000
780 Cu 24.160000 10.620000 10.620000
781 Cu 24.160000 12.390000 12.390000
782 Cu 25.930000 10.620000 12.390000
783 Cu 25.930000 12.390000 10.620000
784 Cu 24.160000 10.620000 14.160000
785 Cu 24.160000 12.390000 15.930000
786 Cu 25.930000 10.620000 15.930000
787 Cu 25.930000 12.390000 14.160000
788 Cu 24.160000 10.620000 17.700000
789 Cu 24.160000 12.390000 19.470000
790 Cu 25.930000 10.620000 19.470000
791 Cu 25.930000 12.390000 17.700000
792 Cu 24.160000 10.620000 21.240000
793 Cu 25.930000 12.390000 21.240000
794 Cu 27.700000 10.620000 -0.000000
795 Cu 27.700000 12.390000 1.770000
796 Cu 29.470000 10.620000 1.770000
797 Cu 29.470000 12.390000 -0.000000
798 Cu 27.700000 10.620000 3.540000
799 Cu 27.700000 12.390000 5.310000
800 Cu 29.470000 10.620000 5.310000
801 Cu 29.470000 12.390000 3.540000
802 Cu 27.700000 10.620000 7.080000
803 Cu 27.700000 12.390000 8.850000
804 Cu 29.470000 10.620000 8.850000
805 Cu 29.470000 12.390000 7.080000
806 Cu 27.700000 10.620000 10.620000
807 Cu 27.700000 12.390000 12.390000
808 Cu 29.470000 10.620000 12.390000
809 Cu 29.470000 12.390000 10.620000
810 Cu 27.700000 10.620000 14.160000
811 Cu 27.700000 12.390000 15.930000
812 Cu 29.470000 10.620000 15.930000
813 Cu 29.470000 12.390000 14.160000
814 Cu 27.700000 10.620000 17.700000
815 Cu 27.700000 12.390000 19.470000
816 Cu 29.470000 10.620000 19.470000
817 Cu 29.470000 12.390000 17.700000
818 Cu 27.700000 10.620000 21.240000
819 Cu 29.470000 12.390000 21.240000
820 Cu 20.620000 14.160000 -0.000000
821 Cu 20.620000 15.930000 1.770000
822 Cu 22.390000 14.160000 1.770000
823 Cu 22.390000 15.930000 -0.000000
824 Cu 20.620000 14.160000 3.540000
825 Cu 20.620000 15.930000 5.310000
826 Cu 22.390000 14.160000 5.310000
827 Cu 22.390000 15.930000 3.540000
828 Cu 20.620000 14.160000 7.080000