Crystalline Cu atoms

12800 atoms
1 atom types
0.000000 121.192885 xlo xhi
0.000000 6.324555 ylo yhi
0.000000 5.000000 zlo zhi

Atoms

1 1 10.000000 0.000000 0.000000
2 1 10.158114 0.474342 0.500000
3 1 10.632456 0.316228 0.000000
4 1 10.000000 0.000000 1.000000
5 1 10.158114 0.474342 1.500000
6 1 10.632456 0.316228 1.000000
7 1 10.000000 0.000000 2.000000
8 1 10.158114 0.474342 2.500000
9 1 10.632456 0.316228 2.000000
10 1 10.000000 0.000000 3.000000
11 1 10.158114 0.474342 3.500000
12 1 10.632456 0.316228 3.000000
13 1 10.000000 0.000000 4.000000
14 1 10.158114 0.474342 4.500000
15 1 10.632456 0.316228 4.000000
16 1 11.106797 0.158114 0.500000
17 1 11.106797 0.158114 1.500000
18 1 11.106797 0.158114 2.500000
19 1 11.106797 0.158114 3.500000
20 1 11.106797 0.158114 4.500000
21 1 10.000000 1.581139 0.000000
22 1 10.000000 1.581139 1.000000
23 1 10.000000 1.581139 2.000000
24 1 10.000000 1.581139 3.000000
25 1 10.000000 1.581139 4.000000
26 1 10.316228 0.948683 0.000000
27 1 10.474342 1.423025 0.500000
28 1 10.790569 0.790569 0.500000
29 1 10.948683 1.264911 0.000000
30 1 10.316228 0.948683 1.000000
31 1 10.474342 1.423025 1.500000
32 1 10.790569 0.790569 1.500000
33 1 10.948683 1.264911 1.000000
34 1 10.316228 0.948683 2.000000
35 1 10.474342 1.423025 2.500000
36 1 10.790569 0.790569 2.500000
37 1 10.948683 1.264911 2.000000
38 1 10.316228 0.948683 3.000000
39 1 10.474342 1.423025 3.500000
40 1 10.790569 0.790569 3.500000
41 1 10.948683 1.264911 3.000000
42 1 10.316228 0.948683 4.000000
43 1 10.474342 1.423025 4.500000
44 1 10.790569 0.790569 4.500000
45 1 10.948683 1.264911 4.000000
46 1 11.264911 0.632456 0.000000
47 1 11.423025 1.106797 0.500000
48 1 11.739253 0.474342 0.500000
49 1 11.897367 0.948683 0.000000
50 1 11.264911 0.632456 1.000000
51 1 11.423025 1.106797 1.500000
52 1 11.739253 0.474342 1.500000
53 1 11.897367 0.948683 1.000000
54 1 11.264911 0.632456 2.000000
55 1 11.423025 1.106797 2.500000
56 1 11.739253 0.474342 2.500000
57 1 11.897367 0.948683 2.000000
58 1 11.264911 0.632456 3.000000
59 1 11.423025 1.106797 3.500000
60 1 11.739253 0.474342 3.500000
61 1 11.897367 0.948683 3.000000
62 1 11.264911 0.632456 4.000000
63 1 11.423025 1.106797 4.500000
64 1 11.739253 0.474342 4.500000
65 1 11.897367 0.948683 4.000000
66 1 12.213594 0.316228 0.000000
67 1 12.371708 0.790569 0.500000
68 1 12.687936 0.158114 0.500000
69 1 12.846050 0.632456 0.000000
70 1 12.213594 0.316228 1.000000
71 1 12.371708 0.790569 1.500000
72 1 12.687936 0.158114 1.500000
73 1 12.846050 0.632456 1.000000
74 1 12.213594 0.316228 2.000000
75 1 12.371708 0.790569 2.500000
76 1 12.687936 0.158114 2.500000
77 1 12.846050 0.632456 2.000000
78 1 12.213594 0.316228 3.000000
79 1 12.371708 0.790569 3.500000
80 1 12.687936 0.158114 3.500000
81 1 12.846050 0.632456 3.000000
82 1 12.213594 0.316228 4.000000
83 1 12.371708 0.790569 4.500000
84 1 12.687936 0.158114 4.500000
85 1 12.846050 0.632456 4.000000
86 1 13.320392 0.474342 0.500000
87 1 13.794733 0.316228 0.000000
88 1 13.320392 0.474342 1.500000
89 1 13.794733 0.316228 1.000000
90 1 13.320392 0.474342 2.500000
91 1 13.794733 0.316228 2.000000
92 1 13.320392 0.474342 3.500000
93 1 13.794733 0.316228 3.000000
94 1 13.320392 0.474342 4.500000
95 1 13.794733 0.316228 4.000000
96 1 14.269075 0.158114 0.500000
97 1 14.269075 0.158114 1.500000
98 1 14.269075 0.158114 2.500000
99 1 14.269075 0.158114 3.500000
100 1 14.269075 0.158114 4.500000
101 1 10.158114 2.055480 0.500000
102 1 10.316228 2.529822 0.000000
103 1 10.158114 2.055480 1.500000
104 1 10.316228 2.529822 1.000000
105 1 10.158114 2.055480 2.500000
106 1 10.316228 2.529822 2.000000
107 1 10.158114 2.055480 3.500000
108 1 10.316228 2.529822 3.000000
109 1 10.158114 2.055480 4.500000
110 1 10.316228 2.529822 4.000000
111 1 10.632456 1.897367 0.000000
112 1 10.790569 2.371708 0.500000
113 1 11.106797 1.739253 0.500000
114 1 11.264911 2.213594 0.000000
115 1 10.632456 1.897367 1.000000
116 1 10.790569 2.371708 1.500000
117 1 11.106797 1.739253 1.500000
118 1 11.264911 2.213594 1.000000
119 1 10.632456 1.897367 2.000000
120 1 10.790569 2.371708 2.500000
121 1 11.106797 1.739253 2.500000
122 1 11.264911 2.213594 2.000000
123 1 10.632456 1.897367 3.000000
124 1 10.790569 2.371708 3.500000
125 1 11.106797 1.739253 3.500000
126 1 11.264911 2.213594 3.000000
127 1 10.632456 1.897367 4.000000
128 1 10.790569 2.371708 4.500000
129 1 11.106797 1.739253 4.500000
130 1 11.264911 2.213594 4.000000
131 1 11.581139 1.581139 0.000000
132 1 11.739253 2.055480 0.500000
133 1 12.055480 1.423025 0.500000
134 1 12.213594 1.897367 0.000000
135 1 11.581139 1.581139 1.000000
136 1 11.739253 2.055480 1.500000
137 1 12.055480 1.423025 1.500000
138 1 12.213594 1.897367 1.000000
139 1 11.581139 1.581139 2.000000
140 1 11.739253 2.055480 2.500000
141 1 12.055480 1.423025 2.500000
142 1 12.213594 1.897367 2.000000
143 1 11.581139 1.581139 3.000000
144 1 11.739253 2.055480 3.500000
145 1 12.055480 1.423025 3.500000
146 1 12.213594 1.897367 3.000000
147 1 11.581139 1.581139 4.000000
148 1 11.739253 2.055480 4.500000
149 1 12.055480 1.423025 4.500000
150 1 12.213594 1.897367 4.000000
151 1 12.529822 1.264911 0.000000
152 1 12.687936 1.739253 0.500000
153 1 13.004164 1.106797 0.500000
154 1 13.162278 1.581139 0.000000
155 1 12.529822 1.264911 1.000000
156 1 12.687936 1.739253 1.500000
157 1 13.004164 1.106797 1.500000
158 1 13.162278 1.581139 1.000000
159 1 12.529822 1.264911 2.000000
160 1 12.687936 1.739253 2.500000
161 1 13.004164 1.106797 2.500000
162 1 13.162278 1.581139 2.000000
163 1 12.529822 1.264911 3.000000
164 1 12.687936 1.739253 3.500000
165 1 13.004164 1.106797 3.500000
166 1 13.162278 1.581139 3.000000
167 1 12.529822 1.264911 4.000000
168 1 12.687936 1.739253 4.500000
169 1 13.004164 1.106797 4.500000
170 1 13.162278 1.581139 4.000000
171 1 13.478505 0.948683 0.000000
172 1 13.636619 1.423025 0.500000
173 1 13.952847 0.790569 0.500000
174 1 14.110961 1.264911 0.000000
175 1 13.478505 0.948683 1.000000
176 1 13.636619 1.423025 1.500000
177 1 13.952847 0.790569 1.500000
178 1 14.110961 1.264911 1.000000
179 1 13.478505 0.948683 2.000000
180 1 13.636619 1.423025 2.500000
181 1 13.952847 0.790569 2.500000
182 1 14.110961 1.264911 2.000000
183 1 13.478505 0.948683 3.000000
184 1 13.636619 1.423025 3.500000
185 1 13.952847 0.790569 3.500000
186 1 14.110961 1.264911 3.000000
187 1 13.478505 0.948683 4.000000
188 1 13.636619 1.423025 4.500000
189 1 13.952847 0.790569 4.500000
190 1 14.110961 1.264911 4.000000
191 1 14.427189 0.632456 0.000000
192 1 14.585303 1.106797 0.500000
193 1 14.901530 0.474342 0.500000
194 1 15.059644 0.948683 0.000000
195 1 14.427189 0.632456 1.000000
196 1 14.585303 1.106797 1.500000
197 1 14.901530 0.474342 1.500000
198 1 15.059644 0.948683 1.000000
199 1 14.427189 0.632456 2.000000
200 1 14.585303 1.106797 2.500000
201 1 14.901530 0.474342 2.500000
202 1 15.059644 0.948683 2.000000
203 1 14.427189 0.632456 3.000000
204 1 14.585303 1.106797 3.500000
205 1 14.901530 0.474342 3.500000
206 1 15.059644 0.948683 3.000000
207 1 14.427189 0.632456 4.000000
208 1 14.585303 1.106797 4.500000
209 1 14.901530 0.474342 4.500000
210 1 15.059644 0.948683 4.000000
211 1 15.375872 0.316228 0.000000
212 1 15.533986 0.790569 0.500000
213 1 15.850214 0.158114 0.500000
214 1 16.008328 0.632456 0.000000
215 1 15.375872 0.316228 1.000000
216 1 15.533986 0.790569 1.500000
217 1 15.850214 0.158114 1.500000
218 1 16.008328 0.632456 1.000000
219 1 15.375872 0.316228 2.000000
220 1 15.533986 0.790569 2.500000
221 1 15.850214 0.158114 2.500000
222 1 16.008328 0.632456 2.000000
223 1 15.375872 0.316228 3.000000
224 1 15.533986 0.790569 3.500000
225 1 15.850214 0.158114 3.500000
226 1 16.008328 0.632456 3.000000
227 1 15.375872 0.316228 4.000000
228 1 15.533986 0.790569 4.500000
229 1 15.850214 0.158114 4.500000
230 1 16.008328 0.632456 4.000000
231 1 16.482669 0.474342 0.500000
232 1 16.957011 0.316228 0.000000
233 1 16.482669 0.474342 1.500000
234 1 16.957011 0.316228 1.000000
235 1 16.482669 0.474342 2.500000
236 1 16.957011 0.316228 2.000000
237 1 16.482669 0.474342 3.500000
238 1 16.957011 0.316228 3.000000
239 1 16.482669 0.474342 4.500000
240 1 16.957011 0.316228 4.000000
241 1 17.431353 0.158114 0.500000
242 1 17.431353 0.158114 1.500000
243 1 17.431353 0.158114 2.500000
244 1 17.431353 0.158114 3.500000
245 1 17.431353 0.158114 4.500000
246 1 10.000000 3.162278 0.000000
247 1 10.158114 3.636619 0.500000
248 1 10.474342 3.004164 0.500000
249 1 10.632456 3.478505 0.000000
250 1 10.000000 3.162278 1.000000
251 1 10.158114 3.636619 1.500000
252 1 10.474342 3.004164 1.500000
253 1 10.632456 3.478505 1.000000
254 1 10.000000 3.162278 2.000000
255 1 10.158114 3.636619 2.500000
256 1 10.474342 3.004164 2.500000
257 1 10.632456 3.478505 2.000000
258 1 10.000000 3.162278 3.000000
259 1 10.158114 3.636619 3.500000
260 1 10.474342 3.004164 3.500000
261 1 10.632456 3.478505 3.000000
262 1 10.000000 3.162278 4.000000
263 1 10.158114 3.636619 4.500000
264 1 10.474342 3.004164 4.500000
265 1 10.632456 3.478505 4.000000
266 1 10.948683 2.846050 0.000000
267 1 11.106797 3.320392 0.500000
268 1 11.423025 2.687936 0.500000
269 1 11.581139 3.162278 0.000000
270 1 10.948683 2.846050 1.000000
271 1 11.106797 3.320392 1.500000
272 1 11.423025 2.687936 1.500000
273 1 11.581139 3.162278 1.000000
274 1 10.948683 2.846050 2.000000
275 1 11.106797 3.320392 2.500000
276 1 11.423025 2.687936 2.500000
277 1 11.581139 3.162278 2.000000
278 1 10.948683 2.846050 3.000000
279 1 11.106797 3.320392 3.500000
280 1 11.423025 2.687936 3.500000
281 1 11.581139 3.162278 3.000000
282 1 10.948683 2.846050 4.000000
283 1 11.106797 3.320392 4.500000
284 1 11.423025 2.687936 4.500000
285 1 11.581139 3.162278 4.000000
286 1 11.897367 2.529822 0.000000
287 1 12.055480 3.004164 0.500000
288 1 12.371708 2.371708 0.500000
289 1 12.529822 2.846050 0.000000
290 1 11.897367 2.529822 1.000000
291 1 12.055480 3.004164 1.500000
292 1 12.371708 2.371708 1.500000
293 1 12.529822 2.846050 1.000000
294 1 11.897367 2.529822 2.000000
295 1 12.055480 3.004164 2.500000
296 1 12.371708 2.371708 2.500000
297 1 12.529822 2.846050 2.000000
298 1 11.897367 2.529822 3.000000
299 1 12.055480 3.004164 3.500000
300 1 12.371708 2.371708 3.500000
301 1 12.529822 2.846050 3.000000
302 1 11.897367 2.529822 4.000000
303 1 12.055480 3.004164 4.500000
304 1 12.371708 2.371708 4.500000
305 1 12.529822 2.846050 4.000000
306 1 12.846050 2.213594 0.000000
307 1 13.004164 2.687936 0.500000
308 1 13.320392 2.055480 0.500000
309 1 13.478505 2.529822 0.000000
310 1 12.846050 2.213594 1.000000
311 1 13.004164 2.687936 1.500000
312 1 13.320392 2.055480 1.500000
313 1 13.478505 2.529822 1.000000
314 1 12.846050 2.213594 2.000000
315 1 13.004164 2.687936 2.500000
316 1 13.320392 2.055480 2.500000
317 1 13.478505 2.529822 2.000000
318 1 12.846050 2.213594 3.000000
319 1 13.004164 2.687936 3.500000
320 1 13.320392 2.055480 3.500000
321 1 13.478505 2.529822 3.000000
322 1 12.846050 2.213594 4.000000
323 1 13.004164 2.687936 4.500000
324 1 13.320392 2.055480 4.500000
325 1 13.478505 2.529822 4.000000
326 1 13.794733 1.897367 0.000000
327 1 13.952847 2.371708 0.500000
328 1 14.269075 1.739253 0.500000
329 1 14.427189 2.213594 0.000000
330 1 13.794733 1.897367 1.000000
331 1 13.952847 2.371708 1.500000
332 1 14.269075 1.739253 1.500000
333 1 14.427189 2.213594 1.000000
334 1 13.794733 1.897367 2.000000
335 1 13.952847 2.371708 2.500000
336 1 14.269075 1.739253 2.500000
337 1 14.427189 2.213594 2.000000
338 1 13.794733 1.897367 3.000000
339 1 13.952847 2.371708 3.500000
340 1 14.269075 1.739253 3.500000
341 1 14.427189 2.213594 3.000000
342 1 13.794733 1.897367 4.000000
343 1 13.952847 2.371708 4.500000
344 1 14.269075 1.739253 4.500000
345 1 14.427189 2.213594 4.000000
346 1 14.743416 1.581139 0.000000
347 1 14.901530 2.055480 0.500000
348 1 15.217758 1.423025 0.500000
349 1 15.375872 1.897367 0.000000
350 1 14.743416 1.581139 1.000000
351 1 14.901530 2.055480 1.500000
352 1 15.217758 1.423025 1.500000
353 1 15.375872 1.897367 1.000000
354 1 14.743416 1.581139 2.000000
355 1 14.901530 2.055480 2.500000
356 1 15.217758 1.423025 2.500000
357 1 15.375872 1.897367 2.000000
358 1 14.743416 1.581139 3.000000
359 1 14.901530 2.055480 3.500000
360 1 15.217758 1.423025 3.500000
361 1 15.375872 1.897367 3.000000
362 1 14.743416 1.581139 4.000000
363 1 14.901530 2.055480 4.500000
364 1 15.217758 1.423025 4.500000
365 1 15.375872 1.897367 4.000000
366 1 15.692100 1.264911 0.000000
367 1 15.850214 1.739253 0.500000
368 1 16.166441 1.106797 0.500000
369 1 16.324555 1.581139 0.000000
370 1 15.692100 1.264911 1.000000
371 1 15.850214 1.739253 1.500000
372 1 16.166441 1.106797 1.500000
373 1 16.324555 1.581139 1.000000
374 1 15.692100 1.264911 2.000000
375 1 15.850214 1.739253 2.500000
376 1 16.166441 1.106797 2.500000
377 1 16.324555 1.581139 2.000000
378 1 15.692100 1.264911 3.000000
379 1 15.850214 1.739253 3.500000
380 1 16.166441 1.106797 3.500000
381 1 16.324555 1.581139 3.000000
382 1 15.692100 1.264911 4.000000
383 1 15.850214 1.739253 4.500000
384 1 16.166441 1.106797 4.500000
385 1 16.324555 1.581139 4.000000
386 1 16.640783 0.948683 0.000000
387 1 16.798897 1.423025 0.500000
388 1 17.115125 0.790569 0.500000
389 1 17.273239 1.264911 0.000000
390 1 16.640783 0.948683 1.000000
391 1 16.798897 1.423025 1.500000
392 1 17.115125 0.790569 1.500000
393 1 17.273239 1.264911 1.000000
394 1 16.640783 0.948683 2.000000
395 1 16.798897 1.423025 2.500000
396 1 17.115125 0.790569 2.500000
397 1 17.273239 1.264911 2.000000
398 1 16.640783 0.948683 3.000000
399 1 16.798897 1.423025 3.500000
400 1 17.115125 0.790569 3.500000
401 1 17.273239 1.264911 3.000000
402 1 16.640783 0.948683 4.000000
403 1 16.798897 1.423025 4.500000
404 1 17.115125 0.790569 4.500000
405 1 17.273239 1.264911 4.000000
406 1 17.589466 0.632456 0.000000
407 1 17.747580 1.106797 0.500000
408 1 18.063808 0.474342 0.500000
409 1 18.221922 0.948683 0.000000
410 1 17.589466 0.632456 1.000000
411 1 17.747580 1.106797 1.500000
412 1 18.063808 0.474342 1.500000
413 1 18.221922 0.948683 1.000000
414 1 17.589466 0.632456 2.000000
415 1 17.747580 1.106797 2.500000
416 1 18.063808 0.474342 2.500000
417 1 18.221922 0.948683 2.000000
418 1 17.589466 0.632456 3.000000
419 1 17.747580 1.106797 3.500000
420 1 18.063808 0.474342 3.500000
421 1 18.221922 0.948683 3.000000
422 1 17.589466 0.632456 4.000000
423 1 17.747580 1.106797 4.500000
424 1 18.063808 0.474342 4.500000
425 1 18.221922 0.948683 4.000000
426 1 18.538150 0.316228 0.000000
427 1 18.696264 0.790569 0.500000
428 1 19.012491 0.158114 0.500000
429 1 19.170605 0.632456 0.000000
430 1 18.538150 0.316228 1.000000
431 1 18.696264 0.790569 1.500000
432 1 19.012491 0.158114 1.500000
433 1 19.170605 0.632456 1.000000
434 1 18.538150 0.316228 2.000000
435 1 18.696264 0.790569 2.500000
436 1 19.012491 0.158114 2.500000
437 1 19.170605 0.632456 2.000000
438 1 18.538150 0.316228 3.000000
439 1 18.696264 0.790569 3.500000
440 1 19.012491 0.158114 3.500000
441 1 19.170605 0.632456 3.000000
442 1 18.538150 0.316228 4.000000
443 1 18.696264 0.790569 4.500000
444 1 19.012491 0.158114 4.500000
445 1 19.170605 0.632456 4.000000
446 1 19.644947 0.474342 0.500000
447 1 20.119289 0.316228 0.000000
448 1 19.644947 0.474342 1.500000
449 1 20.119289 0.316228 1.000000
450 1 19.644947 0.474342 2.500000
451 1 20.119289 0.316228 2.000000
452 1 19.644947 0.474342 3.500000
453 1 20.119289 0.316228 3.000000
454 1 19.644947 0.474342 4.500000
455 1 20.119289 0.316228 4.000000
456 1 20.593630 0.158114 0.500000
457 1 20.593630 0.158114 1.500000
458 1 20.593630 0.158114 2.500000
459 1 20.593630 0.158114 3.500000
460 1 20.593630 0.158114 4.500000
461 1 10.000000 4.743416 0.000000
462 1 10.000000 4.743416 1.000000
463 1 10.000000 4.743416 2.000000
464 1 10.000000 4.743416 3.000000
465 1 10.000000 4.743416 4.000000
466 1 10.316228 4.110961 0.000000
467 1 10.474342 4.585303 0.500000
468 1 10.790569 3.952847 0.500000
469 1 10.948683 4.427189 0.000000
470 1 10.316228 4.110961 1.000000
471 1 10.474342 4.585303 1.500000
472 1 10.790569 3.952847 1.500000
473 1 10.948683 4.427189 1.000000
474 1 10.316228 4.110961 2.000000
475 1 10.474342 4.585303 2.500000
476 1 10.790569 3.952847 2.500000
477 1 10.948683 4.427189 2.000000
478 1 10.316228 4.110961 3.000000
479 1 10.474342 4.585303 3.500000
480 1 10.790569 3.952847 3.500000
481 1 10.948683 4.427189 3.000000
482 1 10.316228 4.110961 4.000000
483 1 10.474342 4.585303 4.500000
484 1 10.790569 3.952847 4.500000
485 1 10.948683 4.427189 4.000000
486 1 11.264911 3.794733 0.000000
487 1 11.423025 4.269075 0.500000
488 1 11.739253 3.636619 0.500000
489 1 11.897367 4.110961 0.000000
490 1 11.264911 3.794733 1.000000
491 1 11.423025 4.269075 1.500000
492 1 11.739253 3.636619 1.500000
493 1 11.897367 4.110961 1.000000
494 1 11.264911 3.794733 2.000000
495 1 11.423025 4.269075 2.500000
496 1 11.739253 3.636619 2.500000
497 1 11.897367 4.110961 2.000000
498 1 11.264911 3.794733 3.000000
499 1 11.423025 4.269075 3.500000
500 1 11.739253 3.636619 3.500000
501 1 11.897367 4.110961 3.000000
502 1 11.264911 3.794733 4.000000
503 1 11.423025 4.269075 4.500000
504 1 11.739253 3.636619 4.500000
505 1 11.897367 4.110961 4.000000
506 1 12.213594 3.478505 0.000000
507 1 12.371708 3.952847 0.500000
508 1 12.687936 3.320392 0.500000
509 1 12.846050 3.794733 0.000000
510 1 12.213594 3.478505 1.000000
511 1 12.371708 3.952847 1.500000
512 1 12.687936 3.320392 1.500000
513 1 12.846050 3.794733 1.000000
514 1 12.213594 3.478505 2.000000
515 1 12.371708 3.952847 2.500000
516 1 12.687936 3.320392 2.500000
517 1 12.846050 3.794733 2.000000
518 1 12.213594 3.478505 3.000000
519 1 12.371708 3.952847 3.500000
520 1 12.687936 3.320392 3.500000
521 1 12.846050 3.794733 3.000000
522 1 12.213594 3.478505 4.000000
523 1 12.371708 3.952847 4.500000
524 1 12.687936 3.320392 4.500000
525 1 12.846050 3.794733 4.000000
526 1 13.162278 3.162278 0.000000
527 1 13.320392 3.636619 0.500000
528 1 13.636619 3.004164 0.500000
529 1 13.794733 3.478505 0.000000
530 1 13.162278 3.162278 1.000000
531 1 13.320392 3.636619 1.500000
532 1 13.636619 3.004164 1.500000
533 1 13.794733 3.478505 1.000000
534 1 13.162278 3.162278 2.000000
535 1 13.320392 3.636619 2.500000
536 1 13.636619 3.004164 2.500000
537 1 13.794733 3.478505 2.000000
538 1 13.162278 3.162278 3.000000
539 1 13.320392 3.636619 3.500000
540 1 13.636619 3.004164 3.500000
541 1 13.794733 3.478505 3.000000
542 1 13.162278 3.162278 4.000000
543 1 13.320392 3.636619 4.500000
544 1 13.636619 3.004164 4.500000
545 1 13.794733 3.478505 4.000000
546 1 14.110961 2.846050 0.000000
547 1 14.269075 3.320392 0.500000
548 1 14.585303 2.687936 0.500000
549 1 14.743417 3.162278 0.000000
550 1 14.110961 2.846050 1.000000
551 1 14.269075 3.320392 1.500000
552 1 14.585303 2.687936 1.500000
553 1 14.743417 3.162278 1.000000
554 1 14.110961 2.846050 2.000000
555 1 14.269075 3.320392 2.500000
556 1 14.585303 2.687936 2.500000
557 1 14.743417 3.162278 2.000000
558 1 14.110961 2.846050 3.000000
559 1 14.269075 3.320392 3.500000
560 1 14.585303 2.687936 3.500000
561 1 14.743417 3.162278 3.000000
562 1 14.110961 2.846050 4.000000
563 1 14.269075 3.320392 4.500000
564 1 14.585303 2.687936 4.500000
565 1 14.743417 3.162278 4.000000
566 1 15.059644 2.529822 0.000000
567 1 15.217758 3.004164 0.500000
568 1 15.533986 2.371708 0.500000
569 1 15.692100 2.846050 0.000000
570 1 15.059644 2.529822 1.000000
571 1 15.217758 3.004164 1.500000
572 1 15.533986 2.371708 1.500000
573 1 15.692100 2.846050 1.000000
574 1 15.059644 2.529822 2.000000
575 1 15.217758 3.004164 2.500000
576 1 15.533986 2.371708 2.500000
577 1 15.692100 2.846050 2.000000
578 1 15.059644 2.529822 3.000000
579 1 15.217758 3.004164 3.500000
580 1 15.533986 2.371708 3.500000
581 1 15.692100 2.846050 3.000000
582 1 15.059644 2.529822 4.000000
583 1 15.217758 3.004164 4.500000
584 1 15.533986 2.371708 4.500000
585 1 15.692100 2.846050 4.000000
586 1 16.008328 2.213594 0.000000
587 1 16.166441 2.687936 0.500000
588 1 16.482669 2.055480 0.500000
589 1 16.640783 2.529822 0.000000
590 1 16.008328 2.213594 1.000000
591 1 16.166441 2.687936 1.500000
592 1 16.482669 2.055480 1.500000
593 1 16.640783 2.529822 1.000000
594 1 16.008328 2.213594 2.000000
595 1 16.166441 2.687936 2.500000
596 1 16.482669 2.055480 2.500000
597 1 16.640783 2.529822 2.000000
598 1 16.008328 2.213594 3.000000
599 1 16.166441 2.687936 3.500000
600 1 16.482669 2.055480 3.500000
601 1 16.640783 2.529822 3.000000
602 1 16.008328 2.213594 4.000000
603 1 16.166441 2.687936 4.500000
604 1 16.482669 2.055480 4.500000
605 1 16.640783 2.529822 4.000000
606 1 16.957011 1.897367 0.000000
607 1 17.115125 2.371708 0.500000
608 1 17.431353 1.739253 0.500000
609 1 17.589466 2.213594 0.000000
610 1 16.957011 1.897367 1.000000
611 1 17.115125 2.371708 1.500000
612 1 17.431353 1.739253 1.500000
613 1 17.589466 2.213594 1.000000
614 1 16.957011 1.897367 2.000000
615 1 17.115125 2.371708 2.500000
616 1 17.431353 1.739253 2.500000
617 1 17.589466 2.213594 2.000000
618 1 16.957011 1.897367 3.000000
619 1 17.115125 2.371708 3.500000
620 1 17.431353 1.739253 3.500000
621 1 17.589466 2.213594 3.000000
622 1 16.957011 1.897367 4.000000
623 1 17.115125 2.371708 4.500000
624 1 17.431353 1.739253 4.500000
625 1 17.589466 2.213594 4.000000
626 1 17.905694 1.581139 0.000000
627 1 18.063808 2.055480 0.500000
628 1 18.380036 1.423025 0.500000
629 1 18.538150 1.897367 0.000000
630 1 17.905694 1.581139 1.000000
631 1 18.063808 2.055480 1.500000
632 1 18.380036 1.423025 1.500000
633 1 18.538150 1.897367 1.000000
634 1 17.905694 1.581139 2.000000
635 1 18.063808 2.055480 2.500000
636 1 18.380036 1.423025 2.500000
637 1 18.538150 1.897367 2.000000
638 1 17.905694 1.581139 3.000000
639 1 18.063808 2.055480 3.500000
640 1 18.380036 1.423025 3.500000
641 1 18.538150 1.897367 3.000000
642 1 17.905694 1.581139 4.000000
643 1 18.063808 2.055480 4.500000
644 1 18.380036 1.423025 4.500000
645 1 18.538150 1.897367 4.000000
646 1 18.854377 1.264911 0.000000
647 1 19.012491 1.739253 0.500000
648 1 19.328719 1.106797 0.500000
649 1 19.486833 1.581139 0.000000
650 1 18.854377 1.264911 1.000000
651 1 19.012491 1.739253 1.500000
652 1 19.328719 1.106797 1.500000
653 1 19.486833 1.581139 1.000000
654 1 18.854377 1.264911 2.000000
655 1 19.012491 1.739253 2.500000
656 1 19.328719 1.106797 2.500000
657 1 19.486833 1.581139 2.000000
658 1 18.854377 1.264911 3.000000
659 1 19.012491 1.739253 3.500000
660 1 19.328719 1.106797 3.500000
661 1 19.486833 1.581139 3.000000
662 1 18.854377 1.264911 4.000000
663 1 19.012491 1.739253 4.500000
664 1 19.328719 1.106797 4.500000
665 1 19.486833 1.581139 4.000000
666 1 19.803061 0.948683 0.000000
667 1 19.961175 1.423025 0.500000
668 1 20.277402 0.790569 0.500000
669 1 20.435516 1.264911 0.000000
670 1 19.803061 0.948683 1.000000
671 1 19.961175 1.423025 1.500000
672 1 20.277402 0.790569 1.500000
673 1 20.435516 1.264911 1.000000
674 1 19.803061 0.948683 2.000000
675 1 19.961175 1.423025 2.500000
676 1 20.277402 0.790569 2.500000
677 1 20.435516 1.264911 2.000000
678 1 19.803061 0.948683 3.000000
679 1 19.961175 1.423025 3.500000
680 1 20.277402 0.790569 3.500000
681 1 20.435516 1.264911 3.000000
682 1 19.803061 0.948683 4.000000
683 1 19.961175 1.423025 4.500000
684 1 20.277402 0.790569 4.500000
685 1 20.435516 1.264911 4.000000
686 1 20.751744 0.632455 0.000000
687 1 20.909858 1.106797 0.500000
688 1 21.226086 0.474342 0.500000
689 1 21.384200 0.948683 0.000000
690 1 20.751744 0.632455 1.000000
691 1 20.909858 1.106797 1.500000
692 1 21.226086 0.474342 1.500000
693 1 21.384200 0.948683 1.000000
694 1 20.751744 0.632455 2.000000
695 1 20.909858 1.106797 2.500000
696 1 21.226086 0.474342 2.500000
697 1 21.384200 0.948683 2.000000
698 1 20.751744 0.632455 3.000000
699 1 20.909858 1.106797 3.500000
700 1 21.226086 0.474342 3.500000
701 1 21.384200 0.948683 3.000000
702 1 20.751744 0.632455 4.000000
703 1 20.909858 1.106797 4.500000
704 1 21.226086 0.474342 4.500000
705 1 21.384200 0.948683 4.000000
706 1 21.700427 0.316228 0.000000
707 1 21.858541 0.790569 0.500000
708 1 22.174769 0.158114 0.500000
709 1 22.332883 0.632455 0.000000
710 1 21.700427 0.316228 1.000000
711 1 21.858541 0.790569 1.500000
712 1 22.174769 0.158114 1.500000
713 1 22.332883 0.632455 1.000000
714 1 21.700427 0.316228 2.000000
715 1 21.858541 0.790569 2.500000
716 1 22.174769 0.158114 2.500000
717 1 22.332883 0.632455 2.000000
718 1 21.700427 0.316228 3.000000
719 1 21.858541 0.790569 3.500000
720 1 22.174769 0.158114 3.500000
721 1 22.332883 0.632455 3.000000
722 1 21.700427 0.316228 4.000000
723 1 21.858541 0.790569 4.500000
724 1 22.174769 0.158114 4.500000
725 1 22.332883 0.632455 4.000000
726 1 22.807225 0.474342 0.500000
727 1 23.281566 0.316228 0.000000
728 1 22.807225 0.474342 1.500000
729 1 23.281566 0.316228 1.000000
730 1 22.807225 0.474342 2.500000
731 1 23.281566 0.316228 2.000000
732 1 22.807225 0.474342 3.500000
733 1 23.281566 0.316228 3.000000
734 1 22.807225 0.474342 4.500000
735 1 23.281566 0.316228 4.000000
736 1 23.755908 0.158114 0.500000
737 1 23.755908 0.158114 1.500000
738 1 23.755908 0.158114 2.500000
739 1 23.755908 0.158114 3.500000
740 1 23.755908 0.158114 4.500000
741 1 10.158114 5.217758 0.500000
742 1 10.316228 5.692100 0.000000
743 1 10.158114 5.217758 1.500000
744 1 10.316228 5.692100 1.000000
745 1 10.158114 5.217758 2.500000
746 1 10.316228 5.692100 2.000000
747 1 10.158114 5.217758 3.500000
748 1 10.316228 5.692100 3.000000
749 1 10.158114 5.217758 4.500000
750 1 10.316228 5.692100 4.000000
751 1 10.632456 5.059644 0.000000
752 1 10.790569 5.533986 0.500000
753 1 11.106797 4.901530 0.500000
754 1 11.264911 5.375872 0.000000
755 1 10.632456 5.059644 1.000000
756 1 10.790569 5.533986 1.500000
757 1 11.106797 4.901530 1.500000
758 1 11.264911 5.375872 1.000000
759 1 10.632456 5.059644 2.000000
760 1 10.790569 5.533986 2.500000
761 1 11.106797 4.901530 2.500000
762 1 11.264911 5.375872 2.000000
763 1 10.632456 5.059644 3.000000
764 1 10.790569 5.533986 3.500000
765 1 11.106797 4.901530 3.500000
766 1 11.264911 5.375872 3.000000
767 1 10.632456 5.059644 4.000000
768 1 10.790569 5.533986 4.500000
769 1 11.106797 4.901530 4.500000
770 1 11.264911 5.375872 4.000000
771 1 11.581139 4.743416 0.000000
772 1 11.739253 5.217758 0.500000
773 1 12.055480 4.585303 0.500000
774 1 12.213594 5.059644 0.000000
775 1 11.581139 4.743416 1.000000
776 1 11.739253 5.217758 1.500000
777 1 12.055480 4.585303 1.500000
778 1 12.213594 5.059644 1.000000
779 1 11.581139 4.743416 2.000000
780 1 11.739253 5.217758 2.500000
781 1 12.055480 4.585303 2.500000
782 1 12.213594 5.059644 2.000000
783 1 11.581139 4.743416 3.000000
784 1 11.739253 5.217758 3.500000
785 1 12.055480 4.585303 3.500000
786 1 12.213594 5.059644 3.000000
787 1 11.581139 4.743416 4.000000
788 1 11.739253 5.217758 4.500000
789 1 12.055480 4.585303 4.500000
790 1 12.213594 5.059644 4.000000
791 1 12.529822 4.427189 0.000000
792 1 12.687936 4.901530 0.500000
793 1 13.004164 4.269075 0.500000
794 1 13.162278 4.743416 0.000000
795 1 12.529822 4.427189 1.000000
796 1 12.687936 4.901530 1.500000
797 1 13.004164 4.269075 1.500000
798 1 13.162278 4.743416 1.000000
799 1 12.529822 4.427189 2.000000
800 1 12.687936 4.901530 2.500000
801 1 13.004164 4.269075 2.500000
802 1 13.162278 4.743416 2.000000
803 1 12.529822 4.427189 3.000000
804 1 12.687936 4.901530 3.500000
805 1 13.004164 4.269075 3.500000
806 1 13.162278 4.743416 3.000000
807 1 12.529822 4.427189 4.000000
808 1 12.687936 4.901530 4.500000
809 1 13.004164 4.269075 4.500000
810 1 13.162278 4.743416 4.000000
811 1 13.478505 4.110961 0.000000
812 1 13.636619 4.585303 0.500000
813 1 13.952847 3.952847 0.500000
814 1 14.110961 4.427189 0.000000
815 1 13.478505 4.110961 1.000000
816 1 13.636619 4.585303 1.500000
817 1 13.952847 3.952847 1.500000
818 1 14.110961 4.427189 1.000000
819 1 13.478505 4.110961 2.000000
820 1 13.636619 4.585303 2.500000
821 1 13.952847 3.952847 2.500000
822 1 14.110961 4.427189 2.000000
823 1 13.478505 4.110961 3.000000
824 1 13.636619 4.585303 3.500000
825 1 13.952847 3.952847 3.500000
826 1 14.110961 4.427189 3.000000
827 1 13.478505 4.110961 4.000000
828 1 13.636619 4.585303 4.500000
829 1 13.952847 3.952847 4.500000
830 1 14.110961 4.427189 4.000000
831 1 14.427189 3.794733 0.000000
832 1 14.585303 4.269075 0.500000
833 1 14.901530 3.636619 0.500000
834 1 15.059644 4.110961 0.000000
835 1 14.427189 3.794733 1.000000
836 1 14.585303 4.269075 1.500000
837 1 14.901530 3.636619 1.500000
838 1 15.059644 4.110961 1.000000
839 1 14.427189 3.794733 2.000000
840 1 14.585303 4.269075 2.500000
841 1 14.901530 3.636619 2.500000
842 1 15.059644 4.110961 2.000000
843 1 14.427189 3.794733 3.000000
844 1 14.585303 4.269075 3.500000
845 1 14.901530 3.636619 3.500000
846 1 15.059644 4.110961 3.000000
847 1 14.427189 3.794733 4.000000
848 1 14.585303 4.269075 4.500000
849 1 14.901530 3.636619 4.500000
850 1 15.059644 4.110961 4.000000
851 1 15.375872 3.478505 0.000000
852 1 15.533986 3.952847 0.500000
853 1 15.850214 3.320392 0.500000
854 1 16.008328 3.794733 0.000000
855 1 15.375872 3.478505 1.000000
856 1 15.533986 3.952847 1.500000
857 1 15.850214 3.320392 1.500000
858 1 16.008328 3.794733 1.000000
859 1 15.375872 3.478505 2.000000
860 1 15.533986 3.952847 2.500000
861 1 15.850214 3.320392 2.500000
862 1 16.008328 3.794733 2.000000
863 1 15.375872 3.478505 3.000000
864 1 15.533986 3.952847 3.500000
865 1 15.850214 3.320392 3.500000
866 1 16.008328 3.794733 3.000000
867 1 15.375872 3.478505 4.000000
868 1 15.533986 3.952847 4.500000
869 1 15.850214 3.320392 4.500000
870 1 16.008328 3.794733 4.000000
871 1 16.324555 3.162278 0.000000
872 1 16.482669 3.636619 0.500000
873 1 16.798897 3.004164 0.500000
874 1 16.957011 3.478505 0.000000
875 1 16.324555 3.162278 1.000000
876 1 16.482669 3.636619 1.500000
877 1 16.798897 3.004164 1.500000
878 1 16.957011 3.478505 1.000000
879 1 16.324555 3.162278 2.000000
880 1 16.482669 3.636619 2.500000
881 1 16.798897 3.004164 2.500000