Crystalline Cu atoms

12660 atoms
1 atom types
-10.0 110.0 xlo xhi
0.0 6.324555320336758 ylo yhi
0.0 5.0 zlo zhi

Atoms

1 1 0.0 0.0 0.0
2 1 0.15811388447441638 0.4743416485365911 0.5
3 1 0.6324555330110075 0.31622776406217473 0.0
4 1 0.0 0.0 1.0
5 1 0.15811388447441638 0.4743416485365911 1.5
6 1 0.6324555330110075 0.31622776406217473 1.0
7 1 0.0 0.0 2.0
8 1 0.15811388447441638 0.4743416485365911 2.5
9 1 0.6324555330110075 0.31622776406217473 2.0
10 1 0.0 0.0 3.0
11 1 0.15811388447441638 0.4743416485365911 3.5
12 1 0.6324555330110075 0.31622776406217473 3.0
13 1 0.0 0.0 4.0
14 1 0.15811388447441638 0.4743416485365911 4.5
15 1 0.6324555330110075 0.31622776406217473 4.0
16 1 1.1067971815475985 0.15811387958775835 0.5
17 1 1.1067971815475985 0.15811387958775835 1.5
18 1 1.1067971815475985 0.15811387958775835 2.5
19 1 1.1067971815475985 0.15811387958775835 3.5
20 1 1.1067971815475985 0.15811387958775835 4.5
21 1 4.886658022673629e-09 1.5811388300841898 0.0
22 1 4.886658022673629e-09 1.5811388300841898 1.0
23 1 4.886658022673629e-09 1.5811388300841898 2.0
24 1 4.886658022673629e-09 1.5811388300841898 3.0
25 1 4.886658022673629e-09 1.5811388300841898 4.0
26 1 0.31622776894883275 0.9486832970731822 0.0
27 1 0.47434165342324913 1.4230249456097734 0.5
28 1 0.7905694174854239 0.7905694125987659 0.5
29 1 0.9486833019598402 1.264911061135357 0.0
30 1 0.31622776894883275 0.9486832970731822 1.0
31 1 0.47434165342324913 1.4230249456097734 1.5
32 1 0.7905694174854239 0.7905694125987659 1.5
33 1 0.9486833019598402 1.264911061135357 1.0
34 1 0.31622776894883275 0.9486832970731822 2.0
35 1 0.47434165342324913 1.4230249456097734 2.5
36 1 0.7905694174854239 0.7905694125987659 2.5
37 1 0.9486833019598402 1.264911061135357 2.0
38 1 0.31622776894883275 0.9486832970731822 3.0
39 1 0.47434165342324913 1.4230249456097734 3.5
40 1 0.7905694174854239 0.7905694125987659 3.5
41 1 0.9486833019598402 1.264911061135357 3.0
42 1 0.31622776894883275 0.9486832970731822 4.0
43 1 0.47434165342324913 1.4230249456097734 4.5
44 1 0.7905694174854239 0.7905694125987659 4.5
45 1 0.9486833019598402 1.264911061135357 4.0
46 1 1.264911066022015 0.6324555281243495 0.0
47 1 1.4230249504964314 1.1067971766609406 0.5
48 1 1.739252714558606 0.4743416436499331 0.5
49 1 1.8973665990330226 0.9486832921865243 0.0
50 1 1.264911066022015 0.6324555281243495 1.0
51 1 1.4230249504964314 1.1067971766609406 1.5
52 1 1.739252714558606 0.4743416436499331 1.5
53 1 1.8973665990330226 0.9486832921865243 1.0
54 1 1.264911066022015 0.6324555281243495 2.0
55 1 1.4230249504964314 1.1067971766609406 2.5
56 1 1.739252714558606 0.4743416436499331 2.5
57 1 1.8973665990330226 0.9486832921865243 2.0
58 1 1.264911066022015 0.6324555281243495 3.0
59 1 1.4230249504964314 1.1067971766609406 3.5
60 1 1.739252714558606 0.4743416436499331 3.5
61 1 1.8973665990330226 0.9486832921865243 3.0
62 1 1.264911066022015 0.6324555281243495 4.0
63 1 1.4230249504964314 1.1067971766609406 4.5
64 1 1.739252714558606 0.4743416436499331 4.5
65 1 1.8973665990330226 0.9486832921865243 4.0
66 1 2.213594363095197 0.3162277591755167 0.0
67 1 2.3717082475696136 0.7905694077121078 0.5
68 1 2.687936011631788 0.1581138747011004 0.5
69 1 2.8460498961062046 0.6324555232376915 0.0
70 1 2.213594363095197 0.3162277591755167 1.0
71 1 2.3717082475696136 0.7905694077121078 1.5
72 1 2.687936011631788 0.1581138747011004 1.5
73 1 2.8460498961062046 0.6324555232376915 1.0
74 1 2.213594363095197 0.3162277591755167 2.0
75 1 2.3717082475696136 0.7905694077121078 2.5
76 1 2.687936011631788 0.1581138747011004 2.5
77 1 2.8460498961062046 0.6324555232376915 2.0
78 1 2.213594363095197 0.3162277591755167 3.0
79 1 2.3717082475696136 0.7905694077121078 3.5
80 1 2.687936011631788 0.1581138747011004 3.5
81 1 2.8460498961062046 0.6324555232376915 3.0
82 1 2.213594363095197 0.3162277591755167 4.0
83 1 2.3717082475696136 0.7905694077121078 4.5
84 1 2.687936011631788 0.1581138747011004 4.5
85 1 2.8460498961062046 0.6324555232376915 4.0
86 1 3.320391544642796 0.47434163876327506 0.5
87 1 3.794733193179387 0.31622775428885863 0.0
88 1 3.320391544642796 0.47434163876327506 1.5
89 1 3.794733193179387 0.31622775428885863 1.0
90 1 3.320391544642796 0.47434163876327506 2.5
91 1 3.794733193179387 0.31622775428885863 2.0
92 1 3.320391544642796 0.47434163876327506 3.5
93 1 3.794733193179387 0.31622775428885863 3.0
94 1 3.320391544642796 0.47434163876327506 4.5
95 1 3.794733193179387 0.31622775428885863 4.0
96 1 4.269074841715978 0.1581138698144423 0.5
97 1 4.269074841715978 0.1581138698144423 1.5
98 1 4.269074841715978 0.1581138698144423 2.5
99 1 4.269074841715978 0.1581138698144423 3.5
100 1 4.269074841715978 0.1581138698144423 4.5
101 1 0.1581138893610744 2.055480478620781 0.5
102 1 0.3162277738354908 2.529822127157372 0.0
103 1 0.1581138893610744 2.055480478620781 1.5
104 1 0.3162277738354908 2.529822127157372 1.0
105 1 0.1581138893610744 2.055480478620781 2.5
106 1 0.3162277738354908 2.529822127157372 2.0
107 1 0.1581138893610744 2.055480478620781 3.5
108 1 0.3162277738354908 2.529822127157372 3.0
109 1 0.1581138893610744 2.055480478620781 4.5
110 1 0.3162277738354908 2.529822127157372 4.0
111 1 0.6324555378976655 1.8973665941463644 0.0
112 1 0.7905694223720818 2.3717082426829554 0.5
113 1 1.1067971864342567 1.7392527096719481 0.5
114 1 1.264911070908673 2.2135943582085393 0.0
115 1 0.6324555378976655 1.8973665941463644 1.0
116 1 0.7905694223720818 2.3717082426829554 1.5
117 1 1.1067971864342567 1.7392527096719481 1.5
118 1 1.264911070908673 2.2135943582085393 1.0
119 1 0.6324555378976655 1.8973665941463644 2.0
120 1 0.7905694223720818 2.3717082426829554 2.5
121 1 1.1067971864342567 1.7392527096719481 2.5
122 1 1.264911070908673 2.2135943582085393 2.0
123 1 0.6324555378976655 1.8973665941463644 3.0
124 1 0.7905694223720818 2.3717082426829554 3.5
125 1 1.1067971864342567 1.7392527096719481 3.5
126 1 1.264911070908673 2.2135943582085393 3.0
127 1 0.6324555378976655 1.8973665941463644 4.0
128 1 0.7905694223720818 2.3717082426829554 4.5
129 1 1.1067971864342567 1.7392527096719481 4.5
130 1 1.264911070908673 2.2135943582085393 4.0
131 1 1.5811388349708477 1.5811388251975318 0.0
132 1 1.739252719445264 2.055480473734123 0.5
133 1 2.0554804835074387 1.4230249407231153 0.5
134 1 2.2135943679818553 1.8973665892597065 0.0
135 1 1.5811388349708477 1.5811388251975318 1.0
136 1 1.739252719445264 2.055480473734123 1.5
137 1 2.0554804835074387 1.4230249407231153 1.5
138 1 2.2135943679818553 1.8973665892597065 1.0
139 1 1.5811388349708477 1.5811388251975318 2.0
140 1 1.739252719445264 2.055480473734123 2.5
141 1 2.0554804835074387 1.4230249407231153 2.5
142 1 2.2135943679818553 1.8973665892597065 2.0
143 1 1.5811388349708477 1.5811388251975318 3.0
144 1 1.739252719445264 2.055480473734123 3.5
145 1 2.0554804835074387 1.4230249407231153 3.5
146 1 2.2135943679818553 1.8973665892597065 3.0
147 1 1.5811388349708477 1.5811388251975318 4.0
148 1 1.739252719445264 2.055480473734123 4.5
149 1 2.0554804835074387 1.4230249407231153 4.5
150 1 2.2135943679818553 1.8973665892597065 4.0
151 1 2.52982213204403 1.264911056248699 0.0
152 1 2.6879360165184463 1.7392527047852901 0.5
153 1 3.0041637805806207 1.1067971717742826 0.5
154 1 3.1622776650550373 1.5811388203108736 0.0
155 1 2.52982213204403 1.264911056248699 1.0
156 1 2.6879360165184463 1.7392527047852901 1.5
157 1 3.0041637805806207 1.1067971717742826 1.5
158 1 3.1622776650550373 1.5811388203108736 1.0
159 1 2.52982213204403 1.264911056248699 2.0
160 1 2.6879360165184463 1.7392527047852901 2.5
161 1 3.0041637805806207 1.1067971717742826 2.5
162 1 3.1622776650550373 1.5811388203108736 2.0
163 1 2.52982213204403 1.264911056248699 3.0
164 1 2.6879360165184463 1.7392527047852901 3.5
165 1 3.0041637805806207 1.1067971717742826 3.5
166 1 3.1622776650550373 1.5811388203108736 3.0
167 1 2.52982213204403 1.264911056248699 4.0
168 1 2.6879360165184463 1.7392527047852901 4.5
169 1 3.0041637805806207 1.1067971717742826 4.5
170 1 3.1622776650550373 1.5811388203108736 4.0
171 1 3.478505429117212 0.9486832872998662 0.0
172 1 3.6366193135916287 1.4230249358364573 0.5
173 1 3.9528470776538036 0.7905694028254497 0.5
174 1 4.11096096212822 1.264911051362041 0.0
175 1 3.478505429117212 0.9486832872998662 1.0
176 1 3.6366193135916287 1.4230249358364573 1.5
177 1 3.9528470776538036 0.7905694028254497 1.5
178 1 4.11096096212822 1.264911051362041 1.0
179 1 3.478505429117212 0.9486832872998662 2.0
180 1 3.6366193135916287 1.4230249358364573 2.5
181 1 3.9528470776538036 0.7905694028254497 2.5
182 1 4.11096096212822 1.264911051362041 2.0
183 1 3.478505429117212 0.9486832872998662 3.0
184 1 3.6366193135916287 1.4230249358364573 3.5
185 1 3.9528470776538036 0.7905694028254497 3.5
186 1 4.11096096212822 1.264911051362041 3.0
187 1 3.478505429117212 0.9486832872998662 4.0
188 1 3.6366193135916287 1.4230249358364573 4.5
189 1 3.9528470776538036 0.7905694028254497 4.5
190 1 4.11096096212822 1.264911051362041 4.0
191 1 4.427188726190394 0.6324555183510334 0.0
192 1 4.585302610664811 1.1067971668876244 0.5
193 1 4.901530374726986 0.4743416338766171 0.5
194 1 5.059644259201402 0.9486832824132082 0.0
195 1 4.427188726190394 0.6324555183510334 1.0
196 1 4.585302610664811 1.1067971668876244 1.5
197 1 4.901530374726986 0.4743416338766171 1.5
198 1 5.059644259201402 0.9486832824132082 1.0
199 1 4.427188726190394 0.6324555183510334 2.0
200 1 4.585302610664811 1.1067971668876244 2.5
201 1 4.901530374726986 0.4743416338766171 2.5
202 1 5.059644259201402 0.9486832824132082 2.0
203 1 4.427188726190394 0.6324555183510334 3.0
204 1 4.585302610664811 1.1067971668876244 3.5
205 1 4.901530374726986 0.4743416338766171 3.5
206 1 5.059644259201402 0.9486832824132082 3.0
207 1 4.427188726190394 0.6324555183510334 4.0
208 1 4.585302610664811 1.1067971668876244 4.5
209 1 4.901530374726986 0.4743416338766171 4.5
210 1 5.059644259201402 0.9486832824132082 4.0
211 1 5.375872023263576 0.3162277494022008 0.0
212 1 5.533985907737993 0.7905693979387919 0.5
213 1 5.850213671800168 0.15811386492778423 0.5
214 1 6.008327556274584 0.6324555134643753 0.0
215 1 5.375872023263576 0.3162277494022008 1.0
216 1 5.533985907737993 0.7905693979387919 1.5
217 1 5.850213671800168 0.15811386492778423 1.5
218 1 6.008327556274584 0.6324555134643753 1.0
219 1 5.375872023263576 0.3162277494022008 2.0
220 1 5.533985907737993 0.7905693979387919 2.5
221 1 5.850213671800168 0.15811386492778423 2.5
222 1 6.008327556274584 0.6324555134643753 2.0
223 1 5.375872023263576 0.3162277494022008 3.0
224 1 5.533985907737993 0.7905693979387919 3.5
225 1 5.850213671800168 0.15811386492778423 3.5
226 1 6.008327556274584 0.6324555134643753 3.0
227 1 5.375872023263576 0.3162277494022008 4.0
228 1 5.533985907737993 0.7905693979387919 4.5
229 1 5.850213671800168 0.15811386492778423 4.5
230 1 6.008327556274584 0.6324555134643753 4.0
231 1 6.482669204811176 0.474341628989959 0.5
232 1 6.957010853347766 0.3162277445155427 0.0
233 1 6.482669204811176 0.474341628989959 1.5
234 1 6.957010853347766 0.3162277445155427 1.0
235 1 6.482669204811176 0.474341628989959 2.5
236 1 6.957010853347766 0.3162277445155427 2.0
237 1 6.482669204811176 0.474341628989959 3.5
238 1 6.957010853347766 0.3162277445155427 3.0
239 1 6.482669204811176 0.474341628989959 4.5
240 1 6.957010853347766 0.3162277445155427 4.0
241 1 7.431352501884358 0.15811386004112615 0.5
242 1 7.431352501884358 0.15811386004112615 1.5
243 1 7.431352501884358 0.15811386004112615 2.5
244 1 7.431352501884358 0.15811386004112615 3.5
245 1 7.431352501884358 0.15811386004112615 4.5
246 1 9.773316045347258e-09 3.1622776601683795 0.0
247 1 0.15811389424773242 3.6366193087049705 0.5
248 1 0.47434165830990715 3.004163775693963 0.5
249 1 0.6324555427843235 3.478505424230554 0.0
250 1 9.773316045347258e-09 3.1622776601683795 1.0
251 1 0.15811389424773242 3.6366193087049705 1.5
252 1 0.47434165830990715 3.004163775693963 1.5
253 1 0.6324555427843235 3.478505424230554 1.0
254 1 9.773316045347258e-09 3.1622776601683795 2.0
255 1 0.15811389424773242 3.6366193087049705 2.5
256 1 0.47434165830990715 3.004163775693963 2.5
257 1 0.6324555427843235 3.478505424230554 2.0
258 1 9.773316045347258e-09 3.1622776601683795 3.0
259 1 0.15811389424773242 3.6366193087049705 3.5
260 1 0.47434165830990715 3.004163775693963 3.5
261 1 0.6324555427843235 3.478505424230554 3.0
262 1 9.773316045347258e-09 3.1622776601683795 4.0
263 1 0.15811389424773242 3.6366193087049705 4.5
264 1 0.47434165830990715 3.004163775693963 4.5
265 1 0.6324555427843235 3.478505424230554 4.0
266 1 0.9486833068464983 2.846049891219547 0.0
267 1 1.1067971913209147 3.320391539756138 0.5
268 1 1.4230249553830894 2.6879360067451303 0.5
269 1 1.5811388398575057 3.1622776552817213 0.0
270 1 0.9486833068464983 2.846049891219547 1.0
271 1 1.1067971913209147 3.320391539756138 1.5
272 1 1.4230249553830894 2.6879360067451303 1.5
273 1 1.5811388398575057 3.1622776552817213 1.0
274 1 0.9486833068464983 2.846049891219547 2.0
275 1 1.1067971913209147 3.320391539756138 2.5
276 1 1.4230249553830894 2.6879360067451303 2.5
277 1 1.5811388398575057 3.1622776552817213 2.0
278 1 0.9486833068464983 2.846049891219547 3.0
279 1 1.1067971913209147 3.320391539756138 3.5
280 1 1.4230249553830894 2.6879360067451303 3.5
281 1 1.5811388398575057 3.1622776552817213 3.0
282 1 0.9486833068464983 2.846049891219547 4.0
283 1 1.1067971913209147 3.320391539756138 4.5
284 1 1.4230249553830894 2.6879360067451303 4.5
285 1 1.5811388398575057 3.1622776552817213 4.0
286 1 1.8973666039196804 2.529822122270714 0.0
287 1 2.055480488394097 3.0041637708073052 0.5
288 1 2.371708252456272 2.3717082377962977 0.5
289 1 2.529822136930688 2.8460498863328887 0.0
290 1 1.8973666039196804 2.529822122270714 1.0
291 1 2.055480488394097 3.0041637708073052 1.5
292 1 2.371708252456272 2.3717082377962977 1.5
293 1 2.529822136930688 2.8460498863328887 1.0
294 1 1.8973666039196804 2.529822122270714 2.0
295 1 2.055480488394097 3.0041637708073052 2.5
296 1 2.371708252456272 2.3717082377962977 2.5
297 1 2.529822136930688 2.8460498863328887 2.0
298 1 1.8973666039196804 2.529822122270714 3.0
299 1 2.055480488394097 3.0041637708073052 3.5
300 1 2.371708252456272 2.3717082377962977 3.5
301 1 2.529822136930688 2.8460498863328887 3.0
302 1 1.8973666039196804 2.529822122270714 4.0
303 1 2.055480488394097 3.0041637708073052 4.5
304 1 2.371708252456272 2.3717082377962977 4.5
305 1 2.529822136930688 2.8460498863328887 4.0
306 1 2.846049900992863 2.213594353321881 0.0
307 1 3.004163785467279 2.687936001858472 0.5
308 1 3.320391549529454 2.055480468847465 0.5
309 1 3.47850543400387 2.529822117384056 0.0
310 1 2.846049900992863 2.213594353321881 1.0
311 1 3.004163785467279 2.687936001858472 1.5
312 1 3.320391549529454 2.055480468847465 1.5
313 1 3.47850543400387 2.529822117384056 1.0
314 1 2.846049900992863 2.213594353321881 2.0
315 1 3.004163785467279 2.687936001858472 2.5
316 1 3.320391549529454 2.055480468847465 2.5
317 1 3.47850543400387 2.529822117384056 2.0
318 1 2.846049900992863 2.213594353321881 3.0
319 1 3.004163785467279 2.687936001858472 3.5
320 1 3.320391549529454 2.055480468847465 3.5
321 1 3.47850543400387 2.529822117384056 3.0
322 1 2.846049900992863 2.213594353321881 4.0
323 1 3.004163785467279 2.687936001858472 4.5
324 1 3.320391549529454 2.055480468847465 4.5
325 1 3.47850543400387 2.529822117384056 4.0
326 1 3.7947331980660453 1.8973665843730485 0.0
327 1 3.9528470825404614 2.3717082329096395 0.5
328 1 4.269074846602636 1.739252699898632 0.5
329 1 4.427188731077052 2.213594348435223 0.0
330 1 3.7947331980660453 1.8973665843730485 1.0
331 1 3.9528470825404614 2.3717082329096395 1.5
332 1 4.269074846602636 1.739252699898632 1.5
333 1 4.427188731077052 2.213594348435223 1.0
334 1 3.7947331980660453 1.8973665843730485 2.0
335 1 3.9528470825404614 2.3717082329096395 2.5
336 1 4.269074846602636 1.739252699898632 2.5
337 1 4.427188731077052 2.213594348435223 2.0
338 1 3.7947331980660453 1.8973665843730485 3.0
339 1 3.9528470825404614 2.3717082329096395 3.5
340 1 4.269074846602636 1.739252699898632 3.5
341 1 4.427188731077052 2.213594348435223 3.0
342 1 3.7947331980660453 1.8973665843730485 4.0
343 1 3.9528470825404614 2.3717082329096395 4.5
344 1 4.269074846602636 1.739252699898632 4.5
345 1 4.427188731077052 2.213594348435223 4.0
346 1 4.743416495139227 1.5811388154242156 0.0
347 1 4.901530379613644 2.055480463960807 0.5
348 1 5.217758143675819 1.4230249309497993 0.5
349 1 5.375872028150235 1.8973665794863903 0.0
350 1 4.743416495139227 1.5811388154242156 1.0
351 1 4.901530379613644 2.055480463960807 1.5
352 1 5.217758143675819 1.4230249309497993 1.5
353 1 5.375872028150235 1.8973665794863903 1.0
354 1 4.743416495139227 1.5811388154242156 2.0
355 1 4.901530379613644 2.055480463960807 2.5
356 1 5.217758143675819 1.4230249309497993 2.5
357 1 5.375872028150235 1.8973665794863903 2.0
358 1 4.743416495139227 1.5811388154242156 3.0
359 1 4.901530379613644 2.055480463960807 3.5
360 1 5.217758143675819 1.4230249309497993 3.5
361 1 5.375872028150235 1.8973665794863903 3.0
362 1 4.743416495139227 1.5811388154242156 4.0
363 1 4.901530379613644 2.055480463960807 4.5
364 1 5.217758143675819 1.4230249309497993 4.5
365 1 5.375872028150235 1.8973665794863903 4.0
366 1 5.692099792212409 1.264911046475383 0.0
367 1 5.850213676686826 1.7392526950119742 0.5
368 1 6.166441440749001 1.1067971620009665 0.5
369 1 6.324555325223417 1.5811388105375577 0.0
370 1 5.692099792212409 1.264911046475383 1.0
371 1 5.850213676686826 1.7392526950119742 1.5
372 1 6.166441440749001 1.1067971620009665 1.5
373 1 6.324555325223417 1.5811388105375577 1.0
374 1 5.692099792212409 1.264911046475383 2.0
375 1 5.850213676686826 1.7392526950119742 2.5
376 1 6.166441440749001 1.1067971620009665 2.5
377 1 6.324555325223417 1.5811388105375577 2.0
378 1 5.692099792212409 1.264911046475383 3.0
379 1 5.850213676686826 1.7392526950119742 3.5
380 1 6.166441440749001 1.1067971620009665 3.5
381 1 6.324555325223417 1.5811388105375577 3.0
382 1 5.692099792212409 1.264911046475383 4.0
383 1 5.850213676686826 1.7392526950119742 4.5
384 1 6.166441440749001 1.1067971620009665 4.5
385 1 6.324555325223417 1.5811388105375577 4.0
386 1 6.640783089285592 0.9486832775265501 0.0
387 1 6.798896973760009 1.4230249260631411 0.5
388 1 7.115124737822183 0.7905693930521338 0.5
389 1 7.273238622296599 1.264911041588725 0.0
390 1 6.640783089285592 0.9486832775265501 1.0
391 1 6.798896973760009 1.4230249260631411 1.5
392 1 7.115124737822183 0.7905693930521338 1.5
393 1 7.273238622296599 1.264911041588725 1.0
394 1 6.640783089285592 0.9486832775265501 2.0
395 1 6.798896973760009 1.4230249260631411 2.5
396 1 7.115124737822183 0.7905693930521338 2.5
397 1 7.273238622296599 1.264911041588725 2.0
398 1 6.640783089285592 0.9486832775265501 3.0
399 1 6.798896973760009 1.4230249260631411 3.5
400 1 7.115124737822183 0.7905693930521338 3.5
401 1 7.273238622296599 1.264911041588725 3.0
402 1 6.640783089285592 0.9486832775265501 4.0
403 1 6.798896973760009 1.4230249260631411 4.5
404 1 7.115124737822183 0.7905693930521338 4.5
405 1 7.273238622296599 1.264911041588725 4.0
406 1 7.589466386358774 0.6324555085777173 0.0
407 1 7.747580270833191 1.1067971571143085 0.5
408 1 8.063808034895365 0.47434162410330116 0.5
409 1 8.22192191936978 0.9486832726398923 0.0
410 1 7.589466386358774 0.6324555085777173 1.0
411 1 7.747580270833191 1.1067971571143085 1.5
412 1 8.063808034895365 0.47434162410330116 1.5
413 1 8.22192191936978 0.9486832726398923 1.0
414 1 7.589466386358774 0.6324555085777173 2.0
415 1 7.747580270833191 1.1067971571143085 2.5
416 1 8.063808034895365 0.47434162410330116 2.5
417 1 8.22192191936978 0.9486832726398923 2.0
418 1 7.589466386358774 0.6324555085777173 3.0
419 1 7.747580270833191 1.1067971571143085 3.5
420 1 8.063808034895365 0.47434162410330116 3.5
421 1 8.22192191936978 0.9486832726398923 3.0
422 1 7.589466386358774 0.6324555085777173 4.0
423 1 7.747580270833191 1.1067971571143085 4.5
424 1 8.063808034895365 0.47434162410330116 4.5
425 1 8.22192191936978 0.9486832726398923 4.0
426 1 8.538149683431955 0.3162277396288846 0.0
427 1 8.696263567906373 0.7905693881654757 0.5
428 1 9.012491331968546 0.15811385515446807 0.5
429 1 9.170605216442963 0.6324555036910592 0.0
430 1 8.538149683431955 0.3162277396288846 1.0
431 1 8.696263567906373 0.7905693881654757 1.5
432 1 9.012491331968546 0.15811385515446807 1.5
433 1 9.170605216442963 0.6324555036910592 1.0
434 1 8.538149683431955 0.3162277396288846 2.0
435 1 8.696263567906373 0.7905693881654757 2.5
436 1 9.012491331968546 0.15811385515446807 2.5
437 1 9.170605216442963 0.6324555036910592 2.0
438 1 8.538149683431955 0.3162277396288846 3.0
439 1 8.696263567906373 0.7905693881654757 3.5
440 1 9.012491331968546 0.15811385515446807 3.5
441 1 9.170605216442963 0.6324555036910592 3.0
442 1 8.538149683431955 0.3162277396288846 4.0
443 1 8.696263567906373 0.7905693881654757 4.5
444 1 9.012491331968546 0.15811385515446807 4.5
445 1 9.170605216442963 0.6324555036910592 4.0
446 1 9.644946864979556 0.4743416192166431 0.5
447 1 10.119288513516146 0.31622773474222654 0.0
448 1 9.644946864979556 0.4743416192166431 1.5
449 1 10.119288513516146 0.31622773474222654 1.0
450 1 9.644946864979556 0.4743416192166431 2.5
451 1 10.119288513516146 0.31622773474222654 2.0
452 1 9.644946864979556 0.4743416192166431 3.5
453 1 10.119288513516146 0.31622773474222654 3.0
454 1 9.644946864979556 0.4743416192166431 4.5
455 1 10.119288513516146 0.31622773474222654 4.0
456 1 10.593630162052737 0.15811385026781044 0.5
457 1 10.593630162052737 0.15811385026781044 1.5
458 1 10.593630162052737 0.15811385026781044 2.5
459 1 10.593630162052737 0.15811385026781044 3.5
460 1 10.593630162052737 0.15811385026781044 4.5
461 1 1.4659973956998584e-08 4.743416490252569 0.0
462 1 1.4659973956998584e-08 4.743416490252569 1.0
463 1 1.4659973956998584e-08 4.743416490252569 2.0
464 1 1.4659973956998584e-08 4.743416490252569 3.0
465 1 1.4659973956998584e-08 4.743416490252569 4.0
466 1 0.3162277787221488 4.110960957241562 0.0
467 1 0.4743416631965652 4.5853026057781525 0.5
468 1 0.7905694272587399 3.9528470727671454 0.5
469 1 0.9486833117331563 4.427188721303736 0.0
470 1 0.3162277787221488 4.110960957241562 1.0
471 1 0.4743416631965652 4.5853026057781525 1.5
472 1 0.7905694272587399 3.9528470727671454 1.5
473 1 0.9486833117331563 4.427188721303736 1.0
474 1 0.3162277787221488 4.110960957241562 2.0
475 1 0.4743416631965652 4.5853026057781525 2.5
476 1 0.7905694272587399 3.9528470727671454 2.5
477 1 0.9486833117331563 4.427188721303736 2.0
478 1 0.3162277787221488 4.110960957241562 3.0
479 1 0.4743416631965652 4.5853026057781525 3.5
480 1 0.7905694272587399 3.9528470727671454 3.5
481 1 0.9486833117331563 4.427188721303736 3.0
482 1 0.3162277787221488 4.110960957241562 4.0
483 1 0.4743416631965652 4.5853026057781525 4.5
484 1 0.7905694272587399 3.9528470727671454 4.5
485 1 0.9486833117331563 4.427188721303736 4.0
486 1 1.264911075795331 3.794733188292729 0.0
487 1 1.4230249602697473 4.26907483682932 0.5
488 1 1.739252724331922 3.6366193038183123 0.5
489 1 1.8973666088063386 4.110960952354904 0.0
490 1 1.264911075795331 3.794733188292729 1.0
491 1 1.4230249602697473 4.26907483682932 1.5
492 1 1.739252724331922 3.6366193038183123 1.5
493 1 1.8973666088063386 4.110960952354904 1.0
494 1 1.264911075795331 3.794733188292729 2.0
495 1 1.4230249602697473 4.26907483682932 2.5
496 1 1.739252724331922 3.6366193038183123 2.5
497 1 1.8973666088063386 4.110960952354904 2.0
498 1 1.264911075795331 3.794733188292729 3.0
499 1 1.4230249602697473 4.26907483682932 3.5
500 1 1.739252724331922 3.6366193038183123 3.5
501 1 1.8973666088063386 4.110960952354904 3.0
502 1 1.264911075795331 3.794733188292729 4.0
503 1 1.4230249602697473 4.26907483682932 4.5
504 1 1.739252724331922 3.6366193038183123 4.5
505 1 1.8973666088063386 4.110960952354904 4.0
506 1 2.2135943728685135 3.4785054193438962 0.0
507 1 2.3717082573429296 3.9528470678804872 0.5
508 1 2.6879360214051045 3.3203915348694797 0.5
509 1 2.846049905879521 3.7947331834060707 0.0
510 1 2.2135943728685135 3.4785054193438962 1.0
511 1 2.3717082573429296 3.9528470678804872 1.5
512 1 2.6879360214051045 3.3203915348694797 1.5
513 1 2.846049905879521 3.7947331834060707 1.0
514 1 2.2135943728685135 3.4785054193438962 2.0
515 1 2.3717082573429296 3.9528470678804872 2.5
516 1 2.6879360214051045 3.3203915348694797 2.5
517 1 2.846049905879521 3.7947331834060707 2.0
518 1 2.2135943728685135 3.4785054193438962 3.0
519 1 2.3717082573429296 3.9528470678804872 3.5
520 1 2.6879360214051045 3.3203915348694797 3.5
521 1 2.846049905879521 3.7947331834060707 3.0
522 1 2.2135943728685135 3.4785054193438962 4.0
523 1 2.3717082573429296 3.9528470678804872 4.5
524 1 2.6879360214051045 3.3203915348694797 4.5
525 1 2.846049905879521 3.7947331834060707 4.0
526 1 3.1622776699416955 3.1622776503950636 0.0
527 1 3.320391554416112 3.6366192989316546 0.5
528 1 3.6366193184782865 3.004163765920647 0.5
529 1 3.794733202952703 3.478505414457238 0.0
530 1 3.1622776699416955 3.1622776503950636 1.0
531 1 3.320391554416112 3.6366192989316546 1.5
532 1 3.6366193184782865 3.004163765920647 1.5
533 1 3.794733202952703 3.478505414457238 1.0
534 1 3.1622776699416955 3.1622776503950636 2.0
535 1 3.320391554416112 3.6366192989316546 2.5
536 1 3.6366193184782865 3.004163765920647 2.5
537 1 3.794733202952703 3.478505414457238 2.0
538 1 3.1622776699416955 3.1622776503950636 3.0
539 1 3.320391554416112 3.6366192989316546 3.5
540 1 3.6366193184782865 3.004163765920647 3.5
541 1 3.794733202952703 3.478505414457238 3.0
542 1 3.1622776699416955 3.1622776503950636 4.0
543 1 3.320391554416112 3.6366192989316546 4.5
544 1 3.6366193184782865 3.004163765920647 4.5
545 1 3.794733202952703 3.478505414457238 4.0
546 1 4.1109609670148775 2.8460498814462305 0.0
547 1 4.269074851489294 3.320391529982822 0.5
548 1 4.585302615551469 2.687935996971814 0.5
549 1 4.743416500025885 3.1622776455084054 0.0
550 1 4.1109609670148775 2.8460498814462305 1.0
551 1 4.269074851489294 3.320391529982822 1.5
552 1 4.585302615551469 2.687935996971814 1.5
553 1 4.743416500025885 3.1622776455084054 1.0
554 1 4.1109609670148775 2.8460498814462305 2.0
555 1 4.269074851489294 3.320391529982822 2.5
556 1 4.585302615551469 2.687935996971814 2.5
557 1 4.743416500025885 3.1622776455084054 2.0
558 1 4.1109609670148775 2.8460498814462305 3.0
559 1 4.269074851489294 3.320391529982822 3.5
560 1 4.585302615551469 2.687935996971814 3.5
561 1 4.743416500025885 3.1622776455084054 3.0
562 1 4.1109609670148775 2.8460498814462305 4.0
563 1 4.269074851489294 3.320391529982822 4.5
564 1 4.585302615551469 2.687935996971814 4.5
565 1 4.743416500025885 3.1622776455084054 4.0
566 1 5.05964426408806 2.529822112497398 0.0
567 1 5.217758148562476 3.004163761033989 0.5
568 1 5.533985912624651 2.3717082280229818 0.5
569 1 5.692099797099067 2.8460498765595728 0.0
570 1 5.05964426408806 2.529822112497398 1.0
571 1 5.217758148562476 3.004163761033989 1.5
572 1 5.533985912624651 2.3717082280229818 1.5
573 1 5.692099797099067 2.8460498765595728 1.0
574 1 5.05964426408806 2.529822112497398 2.0
575 1 5.217758148562476 3.004163761033989 2.5
576 1 5.533985912624651 2.3717082280229818 2.5
577 1 5.692099797099067 2.8460498765595728 2.0
578 1 5.05964426408806 2.529822112497398 3.0
579 1 5.217758148562476 3.004163761033989 3.5
580 1 5.533985912624651 2.3717082280229818 3.5
581 1 5.692099797099067 2.8460498765595728 3.0
582 1 5.05964426408806 2.529822112497398 4.0
583 1 5.217758148562476 3.004163761033989 4.5
584 1 5.533985912624651 2.3717082280229818 4.5
585 1 5.692099797099067 2.8460498765595728 4.0
586 1 6.0083275611612414 2.213594343548565 0.0
587 1 6.166441445635658 2.687935992085156 0.5
588 1 6.482669209697834 2.0554804590741487 0.5
589 1 6.640783094172249 2.5298221076107397 0.0
590 1 6.0083275611612414 2.213594343548565 1.0
591 1 6.166441445635658 2.687935992085156 1.5
592 1 6.482669209697834 2.0554804590741487 1.5
593 1 6.640783094172249 2.5298221076107397 1.0
594 1 6.0083275611612414 2.213594343548565 2.0
595 1 6.166441445635658 2.687935992085156 2.5
596 1 6.482669209697834 2.0554804590741487 2.5
597 1 6.640783094172249 2.5298221076107397 2.0
598 1 6.0083275611612414 2.213594343548565 3.0
599 1 6.166441445635658 2.687935992085156 3.5
600 1 6.482669209697834 2.0554804590741487 3.5
601 1 6.640783094172249 2.5298221076107397 3.0
602 1 6.0083275611612414 2.213594343548565 4.0
603 1 6.166441445635658 2.687935992085156 4.5
604 1 6.482669209697834 2.0554804590741487 4.5
605 1 6.640783094172249 2.5298221076107397 4.0
606 1 6.957010858234424 1.8973665745997323 0.0
607 1 7.115124742708841 2.3717082231363236 0.5
608 1 7.431352506771015 1.739252690125316 0.5
609 1 7.589466391245431 2.213594338661907 0.0
610 1 6.957010858234424 1.8973665745997323 1.0
611 1 7.115124742708841 2.3717082231363236 1.5
612 1 7.431352506771015 1.739252690125316 1.5
613 1 7.589466391245431 2.213594338661907 1.0
614 1 6.957010858234424 1.8973665745997323 2.0
615 1 7.115124742708841 2.3717082231363236 2.5
616 1 7.431352506771015 1.739252690125316 2.5
617 1 7.589466391245431 2.213594338661907 2.0
618 1 6.957010858234424 1.8973665745997323 3.0
619 1 7.115124742708841 2.3717082231363236 3.5
620 1 7.431352506771015 1.739252690125316 3.5
621 1 7.589466391245431 2.213594338661907 3.0
622 1 6.957010858234424 1.8973665745997323 4.0
623 1 7.115124742708841 2.3717082231363236 4.5
624 1 7.431352506771015 1.739252690125316 4.5
625 1 7.589466391245431 2.213594338661907 4.0
626 1 7.905694155307607 1.5811388056508995 0.0
627 1 8.063808039782023 2.0554804541874905 0.5
628 1 8.380035803844198 1.4230249211764834 0.5
629 1 8.538149688318613 1.8973665697130744 0.0
630 1 7.905694155307607 1.5811388056508995 1.0
631 1 8.063808039782023 2.0554804541874905 1.5
632 1 8.380035803844198 1.4230249211764834 1.5
633 1 8.538149688318613 1.8973665697130744 1.0
634 1 7.905694155307607 1.5811388056508995 2.0
635 1 8.063808039782023 2.0554804541874905 2.5
636 1 8.380035803844198 1.4230249211764834 2.5
637 1 8.538149688318613 1.8973665697130744 2.0