Crystalline Cu atoms

792 atoms
1 atom types
-10.000000 30.000000 xlo xhi
0.000000 21.240000 ylo yhi
0.000000 21.240000 zlo zhi

Atom Type Labels

1 Cu

Atoms

1 Cu 1.770000 1.770000 3.540000
2 Cu 1.770000 1.770000 7.080000
3 Cu 1.770000 1.770000 10.620000
4 Cu 1.770000 1.770000 14.160000
5 Cu 1.770000 1.770000 17.700000
6 Cu 1.770000 1.770000 21.240000
7 Cu 3.540000 1.770000 1.770000
8 Cu 3.540000 1.770000 5.310000
9 Cu 5.310000 1.770000 3.540000
10 Cu 3.540000 1.770000 8.850000
11 Cu 5.310000 1.770000 7.080000
12 Cu 3.540000 1.770000 12.390000
13 Cu 5.310000 1.770000 10.620000
14 Cu 3.540000 1.770000 15.930000
15 Cu 5.310000 1.770000 14.160000
16 Cu 3.540000 1.770000 19.470000
17 Cu 5.310000 1.770000 17.700000
18 Cu 5.310000 1.770000 21.240000
19 Cu 7.080000 1.770000 1.770000
20 Cu 7.080000 1.770000 5.310000
21 Cu 8.850000 1.770000 3.540000
22 Cu 7.080000 1.770000 8.850000
23 Cu 8.850000 1.770000 7.080000
24 Cu 7.080000 1.770000 12.390000
25 Cu 8.850000 1.770000 10.620000
26 Cu 7.080000 1.770000 15.930000
27 Cu 8.850000 1.770000 14.160000
28 Cu 7.080000 1.770000 19.470000
29 Cu 8.850000 1.770000 17.700000
30 Cu 8.850000 1.770000 21.240000
31 Cu 1.770000 3.540000 1.770000
32 Cu 1.770000 3.540000 5.310000
33 Cu 1.770000 5.310000 3.540000
34 Cu 1.770000 3.540000 8.850000
35 Cu 1.770000 5.310000 7.080000
36 Cu 1.770000 3.540000 12.390000
37 Cu 1.770000 5.310000 10.620000
38 Cu 1.770000 3.540000 15.930000
39 Cu 1.770000 5.310000 14.160000
40 Cu 1.770000 3.540000 19.470000
41 Cu 1.770000 5.310000 17.700000
42 Cu 1.770000 5.310000 21.240000
43 Cu 3.540000 5.310000 1.770000
44 Cu 5.310000 3.540000 1.770000
45 Cu 3.540000 3.540000 3.540000
46 Cu 3.540000 5.310000 5.310000
47 Cu 5.310000 3.540000 5.310000
48 Cu 5.310000 5.310000 3.540000
49 Cu 3.540000 3.540000 7.080000
50 Cu 3.540000 5.310000 8.850000
51 Cu 5.310000 3.540000 8.850000
52 Cu 5.310000 5.310000 7.080000
53 Cu 3.540000 3.540000 10.620000
54 Cu 3.540000 5.310000 12.390000
55 Cu 5.310000 3.540000 12.390000
56 Cu 5.310000 5.310000 10.620000
57 Cu 3.540000 3.540000 14.160000
58 Cu 3.540000 5.310000 15.930000
59 Cu 5.310000 3.540000 15.930000
60 Cu 5.310000 5.310000 14.160000
61 Cu 3.540000 3.540000 17.700000
62 Cu 3.540000 5.310000 19.470000
63 Cu 5.310000 3.540000 19.470000
64 Cu 5.310000 5.310000 17.700000
65 Cu 3.540000 3.540000 21.240000
66 Cu 5.310000 5.310000 21.240000
67 Cu 7.080000 5.310000 1.770000
68 Cu 8.850000 3.540000 1.770000
69 Cu 7.080000 3.540000 3.540000
70 Cu 7.080000 5.310000 5.310000
71 Cu 8.850000 3.540000 5.310000
72 Cu 8.850000 5.310000 3.540000
73 Cu 7.080000 3.540000 7.080000
74 Cu 7.080000 5.310000 8.850000
75 Cu 8.850000 3.540000 8.850000
76 Cu 8.850000 5.310000 7.080000
77 Cu 7.080000 3.540000 10.620000
78 Cu 7.080000 5.310000 12.390000
79 Cu 8.850000 3.540000 12.390000
80 Cu 8.850000 5.310000 10.620000
81 Cu 7.080000 3.540000 14.160000
82 Cu 7.080000 5.310000 15.930000
83 Cu 8.850000 3.540000 15.930000
84 Cu 8.850000 5.310000 14.160000
85 Cu 7.080000 3.540000 17.700000
86 Cu 7.080000 5.310000 19.470000
87 Cu 8.850000 3.540000 19.470000
88 Cu 8.850000 5.310000 17.700000
89 Cu 7.080000 3.540000 21.240000
90 Cu 8.850000 5.310000 21.240000
91 Cu 1.770000 7.080000 1.770000
92 Cu 1.770000 7.080000 5.310000
93 Cu 1.770000 8.850000 3.540000
94 Cu 1.770000 7.080000 8.850000
95 Cu 1.770000 8.850000 7.080000
96 Cu 1.770000 7.080000 12.390000
97 Cu 1.770000 8.850000 10.620000
98 Cu 1.770000 7.080000 15.930000
99 Cu 1.770000 8.850000 14.160000
100 Cu 1.770000 7.080000 19.470000
101 Cu 1.770000 8.850000 17.700000
102 Cu 1.770000 8.850000 21.240000
103 Cu 3.540000 8.850000 1.770000
104 Cu 5.310000 7.080000 1.770000
105 Cu 3.540000 7.080000 3.540000
106 Cu 3.540000 8.850000 5.310000
107 Cu 5.310000 7.080000 5.310000
108 Cu 5.310000 8.850000 3.540000
109 Cu 3.540000 7.080000 7.080000
110 Cu 3.540000 8.850000 8.850000
111 Cu 5.310000 7.080000 8.850000
112 Cu 5.310000 8.850000 7.080000
113 Cu 3.540000 7.080000 10.620000
114 Cu 3.540000 8.850000 12.390000
115 Cu 5.310000 7.080000 12.390000
116 Cu 5.310000 8.850000 10.620000
117 Cu 3.540000 7.080000 14.160000
118 Cu 3.540000 8.850000 15.930000
119 Cu 5.310000 7.080000 15.930000
120 Cu 5.310000 8.850000 14.160000
121 Cu 3.540000 7.080000 17.700000
122 Cu 3.540000 8.850000 19.470000
123 Cu 5.310000 7.080000 19.470000
124 Cu 5.310000 8.850000 17.700000
125 Cu 3.540000 7.080000 21.240000
126 Cu 5.310000 8.850000 21.240000
127 Cu 7.080000 8.850000 1.770000
128 Cu 8.850000 7.080000 1.770000
129 Cu 7.080000 7.080000 3.540000
130 Cu 7.080000 8.850000 5.310000
131 Cu 8.850000 7.080000 5.310000
132 Cu 8.850000 8.850000 3.540000
133 Cu 7.080000 7.080000 7.080000
134 Cu 7.080000 8.850000 8.850000
135 Cu 8.850000 7.080000 8.850000
136 Cu 8.850000 8.850000 7.080000
137 Cu 7.080000 7.080000 10.620000
138 Cu 7.080000 8.850000 12.390000
139 Cu 8.850000 7.080000 12.390000
140 Cu 8.850000 8.850000 10.620000
141 Cu 7.080000 7.080000 14.160000
142 Cu 7.080000 8.850000 15.930000
143 Cu 8.850000 7.080000 15.930000
144 Cu 8.850000 8.850000 14.160000
145 Cu 7.080000 7.080000 17.700000
146 Cu 7.080000 8.850000 19.470000
147 Cu 8.850000 7.080000 19.470000
148 Cu 8.850000 8.850000 17.700000
149 Cu 7.080000 7.080000 21.240000
150 Cu 8.850000 8.850000 21.240000
151 Cu 1.770000 10.620000 1.770000
152 Cu 1.770000 10.620000 5.310000
153 Cu 1.770000 12.390000 3.540000
154 Cu 1.770000 10.620000 8.850000
155 Cu 1.770000 12.390000 7.080000
156 Cu 1.770000 10.620000 12.390000
157 Cu 1.770000 12.390000 10.620000
158 Cu 1.770000 10.620000 15.930000
159 Cu 1.770000 12.390000 14.160000
160 Cu 1.770000 10.620000 19.470000
161 Cu 1.770000 12.390000 17.700000
162 Cu 1.770000 12.390000 21.240000
163 Cu 3.540000 12.390000 1.770000
164 Cu 5.310000 10.620000 1.770000
165 Cu 3.540000 10.620000 3.540000
166 Cu 3.540000 12.390000 5.310000
167 Cu 5.310000 10.620000 5.310000
168 Cu 5.310000 12.390000 3.540000
169 Cu 3.540000 10.620000 7.080000
170 Cu 3.540000 12.390000 8.850000
171 Cu 5.310000 10.620000 8.850000
172 Cu 5.310000 12.390000 7.080000
173 Cu 3.540000 10.620000 10.620000
174 Cu 3.540000 12.390000 12.390000
175 Cu 5.310000 10.620000 12.390000
176 Cu 5.310000 12.390000 10.620000
177 Cu 3.540000 10.620000 14.160000
178 Cu 3.540000 12.390000 15.930000
179 Cu 5.310000 10.620000 15.930000
180 Cu 5.310000 12.390000 14.160000
181 Cu 3.540000 10.620000 17.700000
182 Cu 3.540000 12.390000 19.470000
183 Cu 5.310000 10.620000 19.470000
184 Cu 5.310000 12.390000 17.700000
185 Cu 3.540000 10.620000 21.240000
186 Cu 5.310000 12.390000 21.240000
187 Cu 7.080000 12.390000 1.770000
188 Cu 8.546992 10.316992 1.466992
189 Cu 7.080000 10.620000 3.540000
190 Cu 7.080000 12.390000 5.310000
191 Cu 8.850000 10.620000 5.310000
192 Cu 8.850000 12.390000 3.540000
193 Cu 7.080000 10.620000 7.080000
194 Cu 7.080000 12.390000 8.850000
195 Cu 8.850000 10.620000 8.850000
196 Cu 8.850000 12.390000 7.080000
197 Cu 7.080000 10.620000 10.620000
198 Cu 7.080000 12.390000 12.390000
199 Cu 8.850000 10.620000 12.390000
200 Cu 8.850000 12.390000 10.620000
201 Cu 7.080000 10.620000 14.160000
202 Cu 7.080000 12.390000 15.930000
203 Cu 8.850000 10.620000 15.930000
204 Cu 8.850000 12.390000 14.160000
205 Cu 7.080000 10.620000 17.700000
206 Cu 7.080000 12.390000 19.470000
207 Cu 8.850000 10.620000 19.470000
208 Cu 8.850000 12.390000 17.700000
209 Cu 7.080000 10.620000 21.240000
210 Cu 8.850000 12.390000 21.240000
211 Cu 1.770000 14.160000 1.770000
212 Cu 1.770000 14.160000 5.310000
213 Cu 1.770000 15.930000 3.540000
214 Cu 1.770000 14.160000 8.850000
215 Cu 1.770000 15.930000 7.080000
216 Cu 1.770000 14.160000 12.390000
217 Cu 1.770000 15.930000 10.620000
218 Cu 1.770000 14.160000 15.930000
219 Cu 1.770000 15.930000 14.160000
220 Cu 1.770000 14.160000 19.470000
221 Cu 1.770000 15.930000 17.700000
222 Cu 1.770000 15.930000 21.240000
223 Cu 3.540000 15.930000 1.770000
224 Cu 5.310000 14.160000 1.770000
225 Cu 3.540000 14.160000 3.540000
226 Cu 3.540000 15.930000 5.310000
227 Cu 5.310000 14.160000 5.310000
228 Cu 5.310000 15.930000 3.540000
229 Cu 3.540000 14.160000 7.080000
230 Cu 3.540000 15.930000 8.850000
231 Cu 5.310000 14.160000 8.850000
232 Cu 5.310000 15.930000 7.080000
233 Cu 3.540000 14.160000 10.620000
234 Cu 3.540000 15.930000 12.390000
235 Cu 5.310000 14.160000 12.390000
236 Cu 5.310000 15.930000 10.620000
237 Cu 3.540000 14.160000 14.160000
238 Cu 3.540000 15.930000 15.930000
239 Cu 5.310000 14.160000 15.930000
240 Cu 5.310000 15.930000 14.160000
241 Cu 3.540000 14.160000 17.700000
242 Cu 3.540000 15.930000 19.470000
243 Cu 5.310000 14.160000 19.470000
244 Cu 5.310000 15.930000 17.700000
245 Cu 3.540000 14.160000 21.240000
246 Cu 5.310000 15.930000 21.240000
247 Cu 7.080000 15.930000 1.770000
248 Cu 8.850000 14.160000 1.770000
249 Cu 7.080000 14.160000 3.540000
250 Cu 7.080000 15.930000 5.310000
251 Cu 8.850000 14.160000 5.310000
252 Cu 8.850000 15.930000 3.540000
253 Cu 7.080000 14.160000 7.080000
254 Cu 7.080000 15.930000 8.850000
255 Cu 8.850000 14.160000 8.850000
256 Cu 8.850000 15.930000 7.080000
257 Cu 7.080000 14.160000 10.620000
258 Cu 7.080000 15.930000 12.390000
259 Cu 8.850000 14.160000 12.390000
260 Cu 8.850000 15.930000 10.620000
261 Cu 7.080000 14.160000 14.160000
262 Cu 7.080000 15.930000 15.930000
263 Cu 8.850000 14.160000 15.930000
264 Cu 8.850000 15.930000 14.160000
265 Cu 7.080000 14.160000 17.700000
266 Cu 7.080000 15.930000 19.470000
267 Cu 8.850000 14.160000 19.470000
268 Cu 8.850000 15.930000 17.700000
269 Cu 7.080000 14.160000 21.240000
270 Cu 8.850000 15.930000 21.240000
271 Cu 1.770000 17.700000 1.770000
272 Cu 1.770000 17.700000 5.310000
273 Cu 1.770000 19.470000 3.540000
274 Cu 1.770000 17.700000 8.850000
275 Cu 1.770000 19.470000 7.080000
276 Cu 1.770000 17.700000 12.390000
277 Cu 1.770000 19.470000 10.620000
278 Cu 1.770000 17.700000 15.930000
279 Cu 1.770000 19.470000 14.160000
280 Cu 1.770000 17.700000 19.470000
281 Cu 1.770000 19.470000 17.700000
282 Cu 1.770000 19.470000 21.240000
283 Cu 3.540000 19.470000 1.770000
284 Cu 5.310000 17.700000 1.770000
285 Cu 3.540000 17.700000 3.540000
286 Cu 3.540000 19.470000 5.310000
287 Cu 5.310000 17.700000 5.310000
288 Cu 5.310000 19.470000 3.540000
289 Cu 3.540000 17.700000 7.080000
290 Cu 3.540000 19.470000 8.850000
291 Cu 5.310000 17.700000 8.850000
292 Cu 5.310000 19.470000 7.080000
293 Cu 3.540000 17.700000 10.620000
294 Cu 3.540000 19.470000 12.390000
295 Cu 5.310000 17.700000 12.390000
296 Cu 5.310000 19.470000 10.620000
297 Cu 3.540000 17.700000 14.160000
298 Cu 3.540000 19.470000 15.930000
299 Cu 5.310000 17.700000 15.930000
300 Cu 5.310000 19.470000 14.160000
301 Cu 3.540000 17.700000 17.700000
302 Cu 3.540000 19.470000 19.470000
303 Cu 5.310000 17.700000 19.470000
304 Cu 5.310000 19.470000 17.700000
305 Cu 3.540000 17.700000 21.240000
306 Cu 5.310000 19.470000 21.240000
307 Cu 7.080000 19.470000 1.770000
308 Cu 8.850000 17.700000 1.770000
309 Cu 7.080000 17.700000 3.540000
310 Cu 7.080000 19.470000 5.310000
311 Cu 8.850000 17.700000 5.310000
312 Cu 8.850000 19.470000 3.540000
313 Cu 7.080000 17.700000 7.080000
314 Cu 7.080000 19.470000 8.850000
315 Cu 8.850000 17.700000 8.850000
316 Cu 8.850000 19.470000 7.080000
317 Cu 7.080000 17.700000 10.620000
318 Cu 7.080000 19.470000 12.390000
319 Cu 8.850000 17.700000 12.390000
320 Cu 8.850000 19.470000 10.620000
321 Cu 7.080000 17.700000 14.160000
322 Cu 7.080000 19.470000 15.930000
323 Cu 8.850000 17.700000 15.930000
324 Cu 8.850000 19.470000 14.160000
325 Cu 7.080000 17.700000 17.700000
326 Cu 7.080000 19.470000 19.470000
327 Cu 8.850000 17.700000 19.470000
328 Cu 8.850000 19.470000 17.700000
329 Cu 7.080000 17.700000 21.240000
330 Cu 8.850000 19.470000 21.240000
331 Cu 1.770000 21.240000 1.770000
332 Cu 1.770000 21.240000 5.310000
333 Cu 1.770000 21.240000 8.850000
334 Cu 1.770000 21.240000 12.390000
335 Cu 1.770000 21.240000 15.930000
336 Cu 1.770000 21.240000 19.470000
337 Cu 5.310000 21.240000 1.770000
338 Cu 3.540000 21.240000 3.540000
339 Cu 5.310000 21.240000 5.310000
340 Cu 3.540000 21.240000 7.080000
341 Cu 5.310000 21.240000 8.850000
342 Cu 3.540000 21.240000 10.620000
343 Cu 5.310000 21.240000 12.390000
344 Cu 3.540000 21.240000 14.160000
345 Cu 5.310000 21.240000 15.930000
346 Cu 3.540000 21.240000 17.700000
347 Cu 5.310000 21.240000 19.470000
348 Cu 3.540000 21.240000 21.240000
349 Cu 8.850000 21.240000 1.770000
350 Cu 7.080000 21.240000 3.540000
351 Cu 8.850000 21.240000 5.310000
352 Cu 7.080000 21.240000 7.080000
353 Cu 8.850000 21.240000 8.850000
354 Cu 7.080000 21.240000 10.620000
355 Cu 8.850000 21.240000 12.390000
356 Cu 7.080000 21.240000 14.160000
357 Cu 8.850000 21.240000 15.930000
358 Cu 7.080000 21.240000 17.700000
359 Cu 8.850000 21.240000 19.470000
360 Cu 7.080000 21.240000 21.240000
361 Cu 10.620000 14.160000 3.540000
362 Cu 10.620000 14.160000 7.080000
363 Cu 10.620000 14.160000 10.620000
364 Cu 10.620000 14.160000 14.160000
365 Cu 10.620000 14.160000 17.700000
366 Cu 10.620000 14.160000 21.240000
367 Cu 12.390000 14.160000 1.770000
368 Cu 12.390000 14.160000 5.310000
369 Cu 14.160000 14.160000 3.540000
370 Cu 12.390000 14.160000 8.850000
371 Cu 14.160000 14.160000 7.080000
372 Cu 12.390000 14.160000 12.390000
373 Cu 14.160000 14.160000 10.620000
374 Cu 12.390000 14.160000 15.930000
375 Cu 14.160000 14.160000 14.160000
376 Cu 12.390000 14.160000 19.470000
377 Cu 14.160000 14.160000 17.700000
378 Cu 14.160000 14.160000 21.240000
379 Cu 15.930000 14.160000 1.770000
380 Cu 15.930000 14.160000 5.310000
381 Cu 17.700000 14.160000 3.540000
382 Cu 15.930000 14.160000 8.850000
383 Cu 17.700000 14.160000 7.080000
384 Cu 15.930000 14.160000 12.390000
385 Cu 17.700000 14.160000 10.620000
386 Cu 15.930000 14.160000 15.930000
387 Cu 17.700000 14.160000 14.160000
388 Cu 15.930000 14.160000 19.470000
389 Cu 17.700000 14.160000 17.700000
390 Cu 17.700000 14.160000 21.240000
391 Cu 19.470000 14.160000 1.770000
392 Cu 19.470000 14.160000 5.310000
393 Cu 19.470000 14.160000 8.850000
394 Cu 19.470000 14.160000 12.390000
395 Cu 19.470000 14.160000 15.930000
396 Cu 19.470000 14.160000 19.470000
397 Cu 10.620000 15.930000 1.770000
398 Cu 10.620000 15.930000 5.310000
399 Cu 10.620000 17.700000 3.540000
400 Cu 10.620000 15.930000 8.850000
401 Cu 10.620000 17.700000 7.080000
402 Cu 10.620000 15.930000 12.390000
403 Cu 10.620000 17.700000 10.620000
404 Cu 10.620000 15.930000 15.930000
405 Cu 10.620000 17.700000 14.160000
406 Cu 10.620000 15.930000 19.470000
407 Cu 10.620000 17.700000 17.700000
408 Cu 10.620000 17.700000 21.240000
409 Cu 12.390000 17.700000 1.770000
410 Cu 14.160000 15.930000 1.770000
411 Cu 12.390000 15.930000 3.540000
412 Cu 12.390000 17.700000 5.310000
413 Cu 14.160000 15.930000 5.310000
414 Cu 14.160000 17.700000 3.540000
415 Cu 12.390000 15.930000 7.080000
416 Cu 12.390000 17.700000 8.850000
417 Cu 14.160000 15.930000 8.850000
418 Cu 14.160000 17.700000 7.080000
419 Cu 12.390000 15.930000 10.620000
420 Cu 12.390000 17.700000 12.390000
421 Cu 14.160000 15.930000 12.390000
422 Cu 14.160000 17.700000 10.620000
423 Cu 12.390000 15.930000 14.160000
424 Cu 12.390000 17.700000 15.930000
425 Cu 14.160000 15.930000 15.930000
426 Cu 14.160000 17.700000 14.160000
427 Cu 12.390000 15.930000 17.700000
428 Cu 12.390000 17.700000 19.470000
429 Cu 14.160000 15.930000 19.470000
430 Cu 14.160000 17.700000 17.700000
431 Cu 12.390000 15.930000 21.240000
432 Cu 14.160000 17.700000 21.240000
433 Cu 15.930000 17.700000 1.770000
434 Cu 17.700000 15.930000 1.770000
435 Cu 15.930000 15.930000 3.540000
436 Cu 15.930000 17.700000 5.310000
437 Cu 17.700000 15.930000 5.310000
438 Cu 17.700000 17.700000 3.540000
439 Cu 15.930000 15.930000 7.080000
440 Cu 15.930000 17.700000 8.850000
441 Cu 17.700000 15.930000 8.850000
442 Cu 17.700000 17.700000 7.080000
443 Cu 15.930000 15.930000 10.620000
444 Cu 15.930000 17.700000 12.390000
445 Cu 17.700000 15.930000 12.390000
446 Cu 17.700000 17.700000 10.620000
447 Cu 15.930000 15.930000 14.160000
448 Cu 15.930000 17.700000 15.930000
449 Cu 17.700000 15.930000 15.930000
450 Cu 17.700000 17.700000 14.160000
451 Cu 15.930000 15.930000 17.700000
452 Cu 15.930000 17.700000 19.470000
453 Cu 17.700000 15.930000 19.470000
454 Cu 17.700000 17.700000 17.700000
455 Cu 15.930000 15.930000 21.240000
456 Cu 17.700000 17.700000 21.240000
457 Cu 19.470000 17.700000 1.770000
458 Cu 19.470000 15.930000 3.540000
459 Cu 19.470000 17.700000 5.310000
460 Cu 19.470000 15.930000 7.080000
461 Cu 19.470000 17.700000 8.850000
462 Cu 19.470000 15.930000 10.620000
463 Cu 19.470000 17.700000 12.390000
464 Cu 19.470000 15.930000 14.160000
465 Cu 19.470000 17.700000 15.930000
466 Cu 19.470000 15.930000 17.700000
467 Cu 19.470000 17.700000 19.470000
468 Cu 19.470000 15.930000 21.240000
469 Cu 10.620000 19.470000 1.770000
470 Cu 10.620000 19.470000 5.310000
471 Cu 10.620000 21.240000 3.540000
472 Cu 10.620000 19.470000 8.850000
473 Cu 10.620000 21.240000 7.080000
474 Cu 10.620000 19.470000 12.390000
475 Cu 10.620000 21.240000 10.620000
476 Cu 10.620000 19.470000 15.930000
477 Cu 10.620000 21.240000 14.160000
478 Cu 10.620000 19.470000 19.470000
479 Cu 10.620000 21.240000 17.700000
480 Cu 10.620000 21.240000 21.240000
481 Cu 12.390000 21.240000 1.770000
482 Cu 14.160000 19.470000 1.770000
483 Cu 12.390000 19.470000 3.540000
484 Cu 12.390000 21.240000 5.310000
485 Cu 14.160000 19.470000 5.310000
486 Cu 14.160000 21.240000 3.540000
487 Cu 12.390000 19.470000 7.080000
488 Cu 12.390000 21.240000 8.850000
489 Cu 14.160000 19.470000 8.850000
490 Cu 14.160000 21.240000 7.080000
491 Cu 12.390000 19.470000 10.620000
492 Cu 12.390000 21.240000 12.390000
493 Cu 14.160000 19.470000 12.390000
494 Cu 14.160000 21.240000 10.620000
495 Cu 12.390000 19.470000 14.160000
496 Cu 12.390000 21.240000 15.930000
497 Cu 14.160000 19.470000 15.930000
498 Cu 14.160000 21.240000 14.160000
499 Cu 12.390000 19.470000 17.700000
500 Cu 12.390000 21.240000 19.470000
501 Cu 14.160000 19.470000 19.470000
502 Cu 14.160000 21.240000 17.700000
503 Cu 12.390000 19.470000 21.240000
504 Cu 14.160000 21.240000 21.240000
505 Cu 15.930000 21.240000 1.770000
506 Cu 17.700000 19.470000 1.770000
507 Cu 15.930000 19.470000 3.540000
508 Cu 15.930000 21.240000 5.310000
509 Cu 17.700000 19.470000 5.310000
510 Cu 17.700000 21.240000 3.540000
511 Cu 15.930000 19.470000 7.080000
512 Cu 15.930000 21.240000 8.850000
513 Cu 17.700000 19.470000 8.850000
514 Cu 17.700000 21.240000 7.080000
515 Cu 15.930000 19.470000 10.620000
516 Cu 15.930000 21.240000 12.390000
517 Cu 17.700000 19.470000 12.390000
518 Cu 17.700000 21.240000 10.620000
519 Cu 15.930000 19.470000 14.160000
520 Cu 15.930000 21.240000 15.930000
521 Cu 17.700000 19.470000 15.930000
522 Cu 17.700000 21.240000 14.160000
523 Cu 15.930000 19.470000 17.700000
524 Cu 15.930000 21.240000 19.470000
525 Cu 17.700000 19.470000 19.470000
526 Cu 17.700000 21.240000 17.700000
527 Cu 15.930000 19.470000 21.240000
528 Cu 17.700000 21.240000 21.240000
529 Cu 19.470000 21.240000 1.770000
530 Cu 19.470000 19.470000 3.540000
531 Cu 19.470000 21.240000 5.310000
532 Cu 19.470000 19.470000 7.080000
533 Cu 19.470000 21.240000 8.850000
534 Cu 19.470000 19.470000 10.620000
535 Cu 19.470000 21.240000 12.390000
536 Cu 19.470000 19.470000 14.160000
537 Cu 19.470000 21.240000 15.930000
538 Cu 19.470000 19.470000 17.700000
539 Cu 19.470000 21.240000 19.470000
540 Cu 19.470000 19.470000 21.240000
541 Cu 10.620000 1.770000 1.770000
542 Cu 10.620000 1.770000 5.310000
543 Cu 10.620000 3.540000 3.540000
544 Cu 10.620000 1.770000 8.850000
545 Cu 10.620000 3.540000 7.080000
546 Cu 10.620000 1.770000 12.390000
547 Cu 10.620000 3.540000 10.620000
548 Cu 10.620000 1.770000 15.930000
549 Cu 10.620000 3.540000 14.160000
550 Cu 10.620000 1.770000 19.470000
551 Cu 10.620000 3.540000 17.700000
552 Cu 10.620000 3.540000 21.240000
553 Cu 12.390000 3.540000 1.770000
554 Cu 14.160000 1.770000 1.770000
555 Cu 12.390000 1.770000 3.540000
556 Cu 12.390000 3.540000 5.310000
557 Cu 14.160000 1.770000 5.310000
558 Cu 14.160000 3.540000 3.540000
559 Cu 12.390000 1.770000 7.080000
560 Cu 12.390000 3.540000 8.850000
561 Cu 14.160000 1.770000 8.850000
562 Cu 14.160000 3.540000 7.080000
563 Cu 12.390000 1.770000 10.620000
564 Cu 12.390000 3.540000 12.390000
565 Cu 14.160000 1.770000 12.390000
566 Cu 14.160000 3.540000 10.620000
567 Cu 12.390000 1.770000 14.160000
568 Cu 12.390000 3.540000 15.930000
569 Cu 14.160000 1.770000 15.930000
570 Cu 14.160000 3.540000 14.160000
571 Cu 12.390000 1.770000 17.700000
572 Cu 12.390000 3.540000 19.470000
573 Cu 14.160000 1.770000 19.470000
574 Cu 14.160000 3.540000 17.700000
575 Cu 12.390000 1.770000 21.240000
576 Cu 14.160000 3.540000 21.240000
577 Cu 15.930000 3.540000 1.770000
578 Cu 17.700000 1.770000 1.770000
579 Cu 15.930000 1.770000 3.540000
580 Cu 15.930000 3.540000 5.310000
581 Cu 17.700000 1.770000 5.310000
582 Cu 17.700000 3.540000 3.540000
583 Cu 15.930000 1.770000 7.080000
584 Cu 15.930000 3.540000 8.850000
585 Cu 17.700000 1.770000 8.850000
586 Cu 17.700000 3.540000 7.080000
587 Cu 15.930000 1.770000 10.620000
588 Cu 15.930000 3.540000 12.390000
589 Cu 17.700000 1.770000 12.390000
590 Cu 17.700000 3.540000 10.620000
591 Cu 15.930000 1.770000 14.160000
592 Cu 15.930000 3.540000 15.930000
593 Cu 17.700000 1.770000 15.930000
594 Cu 17.700000 3.540000 14.160000
595 Cu 15.930000 1.770000 17.700000
596 Cu 15.930000 3.540000 19.470000
597 Cu 17.700000 1.770000 19.470000
598 Cu 17.700000 3.540000 17.700000
599 Cu 15.930000 1.770000 21.240000
600 Cu 17.700000 3.540000 21.240000
601 Cu 19.470000 3.540000 1.770000
602 Cu 19.470000 1.770000 3.540000
603 Cu 19.470000 3.540000 5.310000
604 Cu 19.470000 1.770000 7.080000
605 Cu 19.470000 3.540000 8.850000
606 Cu 19.470000 1.770000 10.620000
607 Cu 19.470000 3.540000 12.390000
608 Cu 19.470000 1.770000 14.160000
609 Cu 19.470000 3.540000 15.930000
610 Cu 19.470000 1.770000 17.700000
611 Cu 19.470000 3.540000 19.470000
612 Cu 19.470000 1.770000 21.240000
613 Cu 10.620000 5.310000 1.770000
614 Cu 10.620000 5.310000 5.310000
615 Cu 10.620000 7.080000 3.540000
616 Cu 10.620000 5.310000 8.850000
617 Cu 10.620000 7.080000 7.080000
618 Cu 10.620000 5.310000 12.390000
619 Cu 10.620000 7.080000 10.620000
620 Cu 10.620000 5.310000 15.930000
621 Cu 10.620000 7.080000 14.160000
622 Cu 10.620000 5.310000 19.470000
623 Cu 10.620000 7.080000 17.700000
624 Cu 10.620000 7.080000 21.240000
625 Cu 12.390000 7.080000 1.770000
626 Cu 14.160000 5.310000 1.770000
627 Cu 12.390000 5.310000 3.540000
628 Cu 12.390000 7.080000 5.310000
629 Cu 14.160000 5.310000 5.310000
630 Cu 14.160000 7.080000 3.540000
631 Cu 12.390000 5.310000 7.080000
632 Cu 12.390000 7.080000 8.850000
633 Cu 14.160000 5.310000 8.850000
634 Cu 14.160000 7.080000 7.080000
635 Cu 12.390000 5.310000 10.620000
636 Cu 12.390000 7.080000 12.390000
637 Cu 14.160000 5.310000 12.390000
638 Cu 14.160000 7.080000 10.620000
639 Cu 12.390000 5.310000 14.160000
640 Cu 12.390000 7.080000 15.930000
641 Cu 14.160000 5.310000 15.930000
642 Cu 14.160000 7.080000 14.160000
643 Cu 12.390000 5.310000 17.700000
644 Cu 12.390000 7.080000 19.470000
645 Cu 14.160000 5.310000 19.470000
646 Cu 14.160000 7.080000 17.700000
647 Cu 12.390000 5.310000 21.240000
648 Cu 14.160000 7.080000 21.240000
649 Cu 15.930000 7.080000 1.770000
650 Cu 17.700000 5.310000 1.770000
651 Cu 15.930000 5.310000 3.540000
652 Cu 15.930000 7.080000 5.310000
653 Cu 17.700000 5.310000 5.310000
654 Cu 17.700000 7.080000 3.540000
655 Cu 15.930000 5.310000 7.080000
656 Cu 15.930000 7.080000 8.850000
657 Cu 17.700000 5.310000 8.850000
658 Cu 17.700000 7.080000 7.080000
659 Cu 15.930000 5.310000 10.620000
660 Cu 15.930000 7.080000 12.390000
661 Cu 17.700000 5.310000 12.390000
662 Cu 17.700000 7.080000 10.620000
663 Cu 15.930000 5.310000 14.160000
664 Cu 15.930000 7.080000 15.930000
665 Cu 17.700000 5.310000 15.930000
666 Cu 17.700000 7.080000 14.160000
667 Cu 15.930000 5.310000 17.700000
668 Cu 15.930000 7.080000 19.470000
669 Cu 17.700000 5.310000 19.470000
670 Cu 17.700000 7.080000 17.700000
671 Cu 15.930000 5.310000 21.240000
672 Cu 17.700000 7.080000 21.240000
673 Cu 19.470000 7.080000 1.770000
674 Cu 19.470000 5.310000 3.540000
675 Cu 19.470000 7.080000 5.310000
676 Cu 19.470000 5.310000 7.080000
677 Cu 19.470000 7.080000 8.850000
678 Cu 19.470000 5.310000 10.620000
679 Cu 19.470000 7.080000 12.390000
680 Cu 19.470000 5.310000 14.160000
681 Cu 19.470000 7.080000 15.930000
682 Cu 19.470000 5.310000 17.700000
683 Cu 19.470000 7.080000 19.470000
684 Cu 19.470000 5.310000 21.240000
685 Cu 10.316992 8.546992 1.466992
686 Cu 10.620000 8.850000 5.310000
687 Cu 10.620000 10.620000 3.540000
688 Cu 10.620000 8.850000 8.850000
689 Cu 10.620000 10.620000 7.080000
690 Cu 10.620000 8.850000 12.390000
691 Cu 10.620000 10.620000 10.620000
692 Cu 10.620000 8.850000 15.930000
693 Cu 10.620000 10.620000 14.160000
694 Cu 10.620000 8.850000 19.470000
695 Cu 10.620000 10.620000 17.700000
696 Cu 9.916992 9.916992 0.096992
697 Cu 12.390000 10.620000 1.770000
698 Cu 14.160000 8.850000 1.770000
699 Cu 12.390000 8.850000 3.540000
700 Cu 12.390000 10.620000 5.310000
701 Cu 14.160000 8.850000 5.310000
702 Cu 14.160000 10.620000 3.540000
703 Cu 12.390000 8.850000 7.080000
704 Cu 12.390000 10.620000 8.850000
705 Cu 14.160000 8.850000 8.850000
706 Cu 14.160000 10.620000 7.080000
707 Cu 12.390000 8.850000 10.620000
708 Cu 12.390000 10.620000 12.390000
709 Cu 14.160000 8.850000 12.390000
710 Cu 14.160000 10.620000 10.620000
711 Cu 12.390000 8.850000 14.160000
712 Cu 12.390000 10.620000 15.930000
713 Cu 14.160000 8.850000 15.930000
714 Cu 14.160000 10.620000 14.160000
715 Cu 12.390000 8.850000 17.700000
716 Cu 12.390000 10.620000 19.470000
717 Cu 14.160000 8.850000 19.470000
718 Cu 14.160000 10.620000 17.700000
719 Cu 12.390000 8.850000 21.240000
720 Cu 14.160000 10.620000 21.240000
721 Cu 15.930000 10.620000 1.770000
722 Cu 17.700000 8.850000 1.770000
723 Cu 15.930000 8.850000 3.540000
724 Cu 15.930000 10.620000 5.310000
725 Cu 17.700000 8.850000 5.310000
726 Cu 17.700000 10.620000 3.540000
727 Cu 15.930000 8.850000 7.080000
728 Cu 15.930000 10.620000 8.850000
729 Cu 17.700000 8.850000 8.850000
730 Cu 17.700000 10.620000 7.080000
731 Cu 15.930000 8.850000 10.620000
732 Cu 15.930000 10.620000 12.390000
733 Cu 17.700000 8.850000 12.390000
734 Cu 17.700000 10.620000 10.620000
735 Cu 15.930000 8.850000 14.160000
736 Cu 15.930000 10.620000 15.930000
737 Cu 17.700000 8.850000 15.930000
738 Cu 17.700000 10.620000 14.160000
739 Cu 15.930000 8.850000 17.700000
740 Cu 15.930000 10.620000 19.470000
741 Cu 17.700000 8.850000 19.470000
742 Cu 17.700000 10.620000 17.700000
743 Cu 15.930000 8.850000 21.240000
744 Cu 17.700000 10.620000 21.240000
745 Cu 19.470000 10.620000 1.770000
746 Cu 19.470000 8.850000 3.540000
747 Cu 19.470000 10.620000 5.310000
748 Cu 19.470000 8.850000 7.080000
749 Cu 19.470000 10.620000 8.850000
750 Cu 19.470000 8.850000 10.620000
751 Cu 19.470000 10.620000 12.390000
752 Cu 19.470000 8.850000 14.160000
753 Cu 19.470000 10.620000 15.930000
754 Cu 19.470000 8.850000 17.700000
755 Cu 19.470000 10.620000 19.470000
756 Cu 19.470000 8.850000 21.240000
757 Cu 10.620000 12.390000 1.770000
758 Cu 10.620000 12.390000 5.310000
759 Cu 10.620000 12.390000 8.850000
760 Cu 10.620000 12.390000 12.390000
761 Cu 10.620000 12.390000 15.930000
762 Cu 10.620000 12.390000 19.470000
763 Cu 14.160000 12.390000 1.770000
764 Cu 12.390000 12.390000 3.540000
765 Cu 14.160000 12.390000 5.310000
766 Cu 12.390000 12.390000 7.080000
767 Cu 14.160000 12.390000 8.850000
768 Cu 12.390000 12.390000 10.620000
769 Cu 14.160000 12.390000 12.390000
770 Cu 12.390000 12.390000 14.160000
771 Cu 14.160000 12.390000 15.930000
772 Cu 12.390000 12.390000 17.700000
773 Cu 14.160000 12.390000 19.470000
774 Cu 12.390000 12.390000 21.240000
775 Cu 17.700000 12.390000 1.770000
776 Cu 15.930000 12.390000 3.540000
777 Cu 17.700000 12.390000 5.310000
778 Cu 15.930000 12.390000 7.080000
779 Cu 17.700000 12.390000 8.850000
780 Cu 15.930000 12.390000 10.620000
781 Cu 17.700000 12.390000 12.390000
782 Cu 15.930000 12.390000 14.160000
783 Cu 17.700000 12.390000 15.930000
784 Cu 15.930000 12.390000 17.700000
785 Cu 17.700000 12.390000 19.470000
786 Cu 15.930000 12.390000 21.240000
787 Cu 19.470000 12.390000 3.540000
788 Cu 19.470000 12.390000 7.080000
789 Cu 19.470000 12.390000 10.620000
790 Cu 19.470000 12.390000 14.160000
791 Cu 19.470000 12.390000 17.700000
792 Cu 19.470000 12.390000 21.240000
