Crystalline Cu atoms

864 atoms
1 atom types
0.000000 41.240000 xlo xhi
0.000000 21.240000 ylo yhi
0.000000 21.240000 zlo zhi

Atom Type Labels

1 Cu

Atoms

1 Cu 11.770000 1.770000 3.540000
2 Cu 11.770000 1.770000 7.080000
3 Cu 11.770000 1.770000 10.620000
4 Cu 11.770000 1.770000 14.160000
5 Cu 11.770000 1.770000 17.700000
6 Cu 11.770000 1.770000 21.240000
7 Cu 13.540000 1.770000 1.770000
8 Cu 13.540000 1.770000 5.310000
9 Cu 15.310000 1.770000 3.540000
10 Cu 13.540000 1.770000 8.850000
11 Cu 15.310000 1.770000 7.080000
12 Cu 13.540000 1.770000 12.390000
13 Cu 15.310000 1.770000 10.620000
14 Cu 13.540000 1.770000 15.930000
15 Cu 15.310000 1.770000 14.160000
16 Cu 13.540000 1.770000 19.470000
17 Cu 15.310000 1.770000 17.700000
18 Cu 15.310000 1.770000 21.240000
19 Cu 17.080000 1.770000 1.770000
20 Cu 17.080000 1.770000 5.310000
21 Cu 18.850000 1.770000 3.540000
22 Cu 17.080000 1.770000 8.850000
23 Cu 18.850000 1.770000 7.080000
24 Cu 17.080000 1.770000 12.390000
25 Cu 18.850000 1.770000 10.620000
26 Cu 17.080000 1.770000 15.930000
27 Cu 18.850000 1.770000 14.160000
28 Cu 17.080000 1.770000 19.470000
29 Cu 18.850000 1.770000 17.700000
30 Cu 18.850000 1.770000 21.240000
31 Cu 20.620000 1.770000 1.770000
32 Cu 20.620000 1.770000 5.310000
33 Cu 20.620000 1.770000 8.850000
34 Cu 20.620000 1.770000 12.390000
35 Cu 20.620000 1.770000 15.930000
36 Cu 20.620000 1.770000 19.470000
37 Cu 11.770000 3.540000 1.770000
38 Cu 11.770000 3.540000 5.310000
39 Cu 11.770000 5.310000 3.540000
40 Cu 11.770000 3.540000 8.850000
41 Cu 11.770000 5.310000 7.080000
42 Cu 11.770000 3.540000 12.390000
43 Cu 11.770000 5.310000 10.620000
44 Cu 11.770000 3.540000 15.930000
45 Cu 11.770000 5.310000 14.160000
46 Cu 11.770000 3.540000 19.470000
47 Cu 11.770000 5.310000 17.700000
48 Cu 11.770000 5.310000 21.240000
49 Cu 13.540000 5.310000 1.770000
50 Cu 15.310000 3.540000 1.770000
51 Cu 13.540000 3.540000 3.540000
52 Cu 13.540000 5.310000 5.310000
53 Cu 15.310000 3.540000 5.310000
54 Cu 15.310000 5.310000 3.540000
55 Cu 13.540000 3.540000 7.080000
56 Cu 13.540000 5.310000 8.850000
57 Cu 15.310000 3.540000 8.850000
58 Cu 15.310000 5.310000 7.080000
59 Cu 13.540000 3.540000 10.620000
60 Cu 13.540000 5.310000 12.390000
61 Cu 15.310000 3.540000 12.390000
62 Cu 15.310000 5.310000 10.620000
63 Cu 13.540000 3.540000 14.160000
64 Cu 13.540000 5.310000 15.930000
65 Cu 15.310000 3.540000 15.930000
66 Cu 15.310000 5.310000 14.160000
67 Cu 13.540000 3.540000 17.700000
68 Cu 13.540000 5.310000 19.470000
69 Cu 15.310000 3.540000 19.470000
70 Cu 15.310000 5.310000 17.700000
71 Cu 13.540000 3.540000 21.240000
72 Cu 15.310000 5.310000 21.240000
73 Cu 17.080000 5.310000 1.770000
74 Cu 18.850000 3.540000 1.770000
75 Cu 17.080000 3.540000 3.540000
76 Cu 17.080000 5.310000 5.310000
77 Cu 18.850000 3.540000 5.310000
78 Cu 18.850000 5.310000 3.540000
79 Cu 17.080000 3.540000 7.080000
80 Cu 17.080000 5.310000 8.850000
81 Cu 18.850000 3.540000 8.850000
82 Cu 18.850000 5.310000 7.080000
83 Cu 17.080000 3.540000 10.620000
84 Cu 17.080000 5.310000 12.390000
85 Cu 18.850000 3.540000 12.390000
86 Cu 18.850000 5.310000 10.620000
87 Cu 17.080000 3.540000 14.160000
88 Cu 17.080000 5.310000 15.930000
89 Cu 18.850000 3.540000 15.930000
90 Cu 18.850000 5.310000 14.160000
91 Cu 17.080000 3.540000 17.700000
92 Cu 17.080000 5.310000 19.470000
93 Cu 18.850000 3.540000 19.470000
94 Cu 18.850000 5.310000 17.700000
95 Cu 17.080000 3.540000 21.240000
96 Cu 18.850000 5.310000 21.240000
97 Cu 20.620000 5.310000 1.770000
98 Cu 20.620000 3.540000 3.540000
99 Cu 20.620000 5.310000 5.310000
100 Cu 20.620000 3.540000 7.080000
101 Cu 20.620000 5.310000 8.850000
102 Cu 20.620000 3.540000 10.620000
103 Cu 20.620000 5.310000 12.390000
104 Cu 20.620000 3.540000 14.160000
105 Cu 20.620000 5.310000 15.930000
106 Cu 20.620000 3.540000 17.700000
107 Cu 20.620000 5.310000 19.470000
108 Cu 20.620000 3.540000 21.240000
109 Cu 11.770000 7.080000 1.770000
110 Cu 11.770000 7.080000 5.310000
111 Cu 11.770000 8.850000 3.540000
112 Cu 11.770000 7.080000 8.850000
113 Cu 11.770000 8.850000 7.080000
114 Cu 11.770000 7.080000 12.390000
115 Cu 11.770000 8.850000 10.620000
116 Cu 11.770000 7.080000 15.930000
117 Cu 11.770000 8.850000 14.160000
118 Cu 11.770000 7.080000 19.470000
119 Cu 11.770000 8.850000 17.700000
120 Cu 11.770000 8.850000 21.240000
121 Cu 13.540000 8.850000 1.770000
122 Cu 15.310000 7.080000 1.770000
123 Cu 13.540000 7.080000 3.540000
124 Cu 13.540000 8.850000 5.310000
125 Cu 15.310000 7.080000 5.310000
126 Cu 15.310000 8.850000 3.540000
127 Cu 13.540000 7.080000 7.080000
128 Cu 13.540000 8.850000 8.850000
129 Cu 15.310000 7.080000 8.850000
130 Cu 15.310000 8.850000 7.080000
131 Cu 13.540000 7.080000 10.620000
132 Cu 13.540000 8.850000 12.390000
133 Cu 15.310000 7.080000 12.390000
134 Cu 15.310000 8.850000 10.620000
135 Cu 13.540000 7.080000 14.160000
136 Cu 13.540000 8.850000 15.930000
137 Cu 15.310000 7.080000 15.930000
138 Cu 15.310000 8.850000 14.160000
139 Cu 13.540000 7.080000 17.700000
140 Cu 13.540000 8.850000 19.470000
141 Cu 15.310000 7.080000 19.470000
142 Cu 15.310000 8.850000 17.700000
143 Cu 13.540000 7.080000 21.240000
144 Cu 15.310000 8.850000 21.240000
145 Cu 17.080000 8.850000 1.770000
146 Cu 18.850000 7.080000 1.770000
147 Cu 17.080000 7.080000 3.540000
148 Cu 17.080000 8.850000 5.310000
149 Cu 18.850000 7.080000 5.310000
150 Cu 18.850000 8.850000 3.540000
151 Cu 17.080000 7.080000 7.080000
152 Cu 17.080000 8.850000 8.850000
153 Cu 18.850000 7.080000 8.850000
154 Cu 18.850000 8.850000 7.080000
155 Cu 17.080000 7.080000 10.620000
156 Cu 17.080000 8.850000 12.390000
157 Cu 18.850000 7.080000 12.390000
158 Cu 18.850000 8.850000 10.620000
159 Cu 17.080000 7.080000 14.160000
160 Cu 17.080000 8.850000 15.930000
161 Cu 18.850000 7.080000 15.930000
162 Cu 18.850000 8.850000 14.160000
163 Cu 17.080000 7.080000 17.700000
164 Cu 17.080000 8.850000 19.470000
165 Cu 18.850000 7.080000 19.470000
166 Cu 18.850000 8.850000 17.700000
167 Cu 17.080000 7.080000 21.240000
168 Cu 18.850000 8.850000 21.240000
169 Cu 20.620000 8.850000 1.770000
170 Cu 20.620000 7.080000 3.540000
171 Cu 20.620000 8.850000 5.310000
172 Cu 20.620000 7.080000 7.080000
173 Cu 20.620000 8.850000 8.850000
174 Cu 20.620000 7.080000 10.620000
175 Cu 20.620000 8.850000 12.390000
176 Cu 20.620000 7.080000 14.160000
177 Cu 20.620000 8.850000 15.930000
178 Cu 20.620000 7.080000 17.700000
179 Cu 20.620000 8.850000 19.470000
180 Cu 20.620000 7.080000 21.240000
181 Cu 11.770000 10.620000 1.770000
182 Cu 11.770000 10.620000 5.310000
183 Cu 11.770000 12.390000 3.540000
184 Cu 11.770000 10.620000 8.850000
185 Cu 11.770000 12.390000 7.080000
186 Cu 11.770000 10.620000 12.390000
187 Cu 11.770000 12.390000 10.620000
188 Cu 11.770000 10.620000 15.930000
189 Cu 11.770000 12.390000 14.160000
190 Cu 11.770000 10.620000 19.470000
191 Cu 11.770000 12.390000 17.700000
192 Cu 11.770000 12.390000 21.240000
193 Cu 13.540000 12.390000 1.770000
194 Cu 15.310000 10.620000 1.770000
195 Cu 13.540000 10.620000 3.540000
196 Cu 13.540000 12.390000 5.310000
197 Cu 15.310000 10.620000 5.310000
198 Cu 15.310000 12.390000 3.540000
199 Cu 13.540000 10.620000 7.080000
200 Cu 13.540000 12.390000 8.850000
201 Cu 15.310000 10.620000 8.850000
202 Cu 15.310000 12.390000 7.080000
203 Cu 13.540000 10.620000 10.620000
204 Cu 13.540000 12.390000 12.390000
205 Cu 15.310000 10.620000 12.390000
206 Cu 15.310000 12.390000 10.620000
207 Cu 13.540000 10.620000 14.160000
208 Cu 13.540000 12.390000 15.930000
209 Cu 15.310000 10.620000 15.930000
210 Cu 15.310000 12.390000 14.160000
211 Cu 13.540000 10.620000 17.700000
212 Cu 13.540000 12.390000 19.470000
213 Cu 15.310000 10.620000 19.470000
214 Cu 15.310000 12.390000 17.700000
215 Cu 13.540000 10.620000 21.240000
216 Cu 15.310000 12.390000 21.240000
217 Cu 17.080000 12.390000 1.770000
218 Cu 18.850000 10.620000 1.770000
219 Cu 17.080000 10.620000 3.540000
220 Cu 17.080000 12.390000 5.310000
221 Cu 18.850000 10.620000 5.310000
222 Cu 18.850000 12.390000 3.540000
223 Cu 17.080000 10.620000 7.080000
224 Cu 17.080000 12.390000 8.850000
225 Cu 18.850000 10.620000 8.850000
226 Cu 18.850000 12.390000 7.080000
227 Cu 17.080000 10.620000 10.620000
228 Cu 17.080000 12.390000 12.390000
229 Cu 18.850000 10.620000 12.390000
230 Cu 18.850000 12.390000 10.620000
231 Cu 17.080000 10.620000 14.160000
232 Cu 17.080000 12.390000 15.930000
233 Cu 18.850000 10.620000 15.930000
234 Cu 18.850000 12.390000 14.160000
235 Cu 17.080000 10.620000 17.700000
236 Cu 17.080000 12.390000 19.470000
237 Cu 18.850000 10.620000 19.470000
238 Cu 18.850000 12.390000 17.700000
239 Cu 17.080000 10.620000 21.240000
240 Cu 18.850000 12.390000 21.240000
241 Cu 20.620000 12.390000 1.770000
242 Cu 20.620000 10.620000 3.540000
243 Cu 20.620000 12.390000 5.310000
244 Cu 20.620000 10.620000 7.080000
245 Cu 20.620000 12.390000 8.850000
246 Cu 20.620000 10.620000 10.620000
247 Cu 20.620000 12.390000 12.390000
248 Cu 20.620000 10.620000 14.160000
249 Cu 20.620000 12.390000 15.930000
250 Cu 20.620000 10.620000 17.700000
251 Cu 20.620000 12.390000 19.470000
252 Cu 20.620000 10.620000 21.240000
253 Cu 11.770000 14.160000 1.770000
254 Cu 11.770000 14.160000 5.310000
255 Cu 11.770000 15.930000 3.540000
256 Cu 11.770000 14.160000 8.850000
257 Cu 11.770000 15.930000 7.080000
258 Cu 11.770000 14.160000 12.390000
259 Cu 11.770000 15.930000 10.620000
260 Cu 11.770000 14.160000 15.930000
261 Cu 11.770000 15.930000 14.160000
262 Cu 11.770000 14.160000 19.470000
263 Cu 11.770000 15.930000 17.700000
264 Cu 11.770000 15.930000 21.240000
265 Cu 13.540000 15.930000 1.770000
266 Cu 15.310000 14.160000 1.770000
267 Cu 13.540000 14.160000 3.540000
268 Cu 13.540000 15.930000 5.310000
269 Cu 15.310000 14.160000 5.310000
270 Cu 15.310000 15.930000 3.540000
271 Cu 13.540000 14.160000 7.080000
272 Cu 13.540000 15.930000 8.850000
273 Cu 15.310000 14.160000 8.850000
274 Cu 15.310000 15.930000 7.080000
275 Cu 13.540000 14.160000 10.620000
276 Cu 13.540000 15.930000 12.390000
277 Cu 15.310000 14.160000 12.390000
278 Cu 15.310000 15.930000 10.620000
279 Cu 13.540000 14.160000 14.160000
280 Cu 13.540000 15.930000 15.930000
281 Cu 15.310000 14.160000 15.930000
282 Cu 15.310000 15.930000 14.160000
283 Cu 13.540000 14.160000 17.700000
284 Cu 13.540000 15.930000 19.470000
285 Cu 15.310000 14.160000 19.470000
286 Cu 15.310000 15.930000 17.700000
287 Cu 13.540000 14.160000 21.240000
288 Cu 15.310000 15.930000 21.240000
289 Cu 17.080000 15.930000 1.770000
290 Cu 18.850000 14.160000 1.770000
291 Cu 17.080000 14.160000 3.540000
292 Cu 17.080000 15.930000 5.310000
293 Cu 18.850000 14.160000 5.310000
294 Cu 18.850000 15.930000 3.540000
295 Cu 17.080000 14.160000 7.080000
296 Cu 17.080000 15.930000 8.850000
297 Cu 18.850000 14.160000 8.850000
298 Cu 18.850000 15.930000 7.080000
299 Cu 17.080000 14.160000 10.620000
300 Cu 17.080000 15.930000 12.390000
301 Cu 18.850000 14.160000 12.390000
302 Cu 18.850000 15.930000 10.620000
303 Cu 17.080000 14.160000 14.160000
304 Cu 17.080000 15.930000 15.930000
305 Cu 18.850000 14.160000 15.930000
306 Cu 18.850000 15.930000 14.160000
307 Cu 17.080000 14.160000 17.700000
308 Cu 17.080000 15.930000 19.470000
309 Cu 18.850000 14.160000 19.470000
310 Cu 18.850000 15.930000 17.700000
311 Cu 17.080000 14.160000 21.240000
312 Cu 18.850000 15.930000 21.240000
313 Cu 20.620000 15.930000 1.770000
314 Cu 20.620000 14.160000 3.540000
315 Cu 20.620000 15.930000 5.310000
316 Cu 20.620000 14.160000 7.080000
317 Cu 20.620000 15.930000 8.850000
318 Cu 20.620000 14.160000 10.620000
319 Cu 20.620000 15.930000 12.390000
320 Cu 20.620000 14.160000 14.160000
321 Cu 20.620000 15.930000 15.930000
322 Cu 20.620000 14.160000 17.700000
323 Cu 20.620000 15.930000 19.470000
324 Cu 20.620000 14.160000 21.240000
325 Cu 11.770000 17.700000 1.770000
326 Cu 11.770000 17.700000 5.310000
327 Cu 11.770000 19.470000 3.540000
328 Cu 11.770000 17.700000 8.850000
329 Cu 11.770000 19.470000 7.080000
330 Cu 11.770000 17.700000 12.390000
331 Cu 11.770000 19.470000 10.620000
332 Cu 11.770000 17.700000 15.930000
333 Cu 11.770000 19.470000 14.160000
334 Cu 11.770000 17.700000 19.470000
335 Cu 11.770000 19.470000 17.700000
336 Cu 11.770000 19.470000 21.240000
337 Cu 13.540000 19.470000 1.770000
338 Cu 15.310000 17.700000 1.770000
339 Cu 13.540000 17.700000 3.540000
340 Cu 13.540000 19.470000 5.310000
341 Cu 15.310000 17.700000 5.310000
342 Cu 15.310000 19.470000 3.540000
343 Cu 13.540000 17.700000 7.080000
344 Cu 13.540000 19.470000 8.850000
345 Cu 15.310000 17.700000 8.850000
346 Cu 15.310000 19.470000 7.080000
347 Cu 13.540000 17.700000 10.620000
348 Cu 13.540000 19.470000 12.390000
349 Cu 15.310000 17.700000 12.390000
350 Cu 15.310000 19.470000 10.620000
351 Cu 13.540000 17.700000 14.160000
352 Cu 13.540000 19.470000 15.930000
353 Cu 15.310000 17.700000 15.930000
354 Cu 15.310000 19.470000 14.160000
355 Cu 13.540000 17.700000 17.700000
356 Cu 13.540000 19.470000 19.470000
357 Cu 15.310000 17.700000 19.470000
358 Cu 15.310000 19.470000 17.700000
359 Cu 13.540000 17.700000 21.240000
360 Cu 15.310000 19.470000 21.240000
361 Cu 17.080000 19.470000 1.770000
362 Cu 18.850000 17.700000 1.770000
363 Cu 17.080000 17.700000 3.540000
364 Cu 17.080000 19.470000 5.310000
365 Cu 18.850000 17.700000 5.310000
366 Cu 18.850000 19.470000 3.540000
367 Cu 17.080000 17.700000 7.080000
368 Cu 17.080000 19.470000 8.850000
369 Cu 18.850000 17.700000 8.850000
370 Cu 18.850000 19.470000 7.080000
371 Cu 17.080000 17.700000 10.620000
372 Cu 17.080000 19.470000 12.390000
373 Cu 18.850000 17.700000 12.390000
374 Cu 18.850000 19.470000 10.620000
375 Cu 17.080000 17.700000 14.160000
376 Cu 17.080000 19.470000 15.930000
377 Cu 18.850000 17.700000 15.930000
378 Cu 18.850000 19.470000 14.160000
379 Cu 17.080000 17.700000 17.700000
380 Cu 17.080000 19.470000 19.470000
381 Cu 18.850000 17.700000 19.470000
382 Cu 18.850000 19.470000 17.700000
383 Cu 17.080000 17.700000 21.240000
384 Cu 18.850000 19.470000 21.240000
385 Cu 20.620000 19.470000 1.770000
386 Cu 20.620000 17.700000 3.540000
387 Cu 20.620000 19.470000 5.310000
388 Cu 20.620000 17.700000 7.080000
389 Cu 20.620000 19.470000 8.850000
390 Cu 20.620000 17.700000 10.620000
391 Cu 20.620000 19.470000 12.390000
392 Cu 20.620000 17.700000 14.160000
393 Cu 20.620000 19.470000 15.930000
394 Cu 20.620000 17.700000 17.700000
395 Cu 20.620000 19.470000 19.470000
396 Cu 20.620000 17.700000 21.240000
397 Cu 11.770000 21.240000 1.770000
398 Cu 11.770000 21.240000 5.310000
399 Cu 11.770000 21.240000 8.850000
400 Cu 11.770000 21.240000 12.390000
401 Cu 11.770000 21.240000 15.930000
402 Cu 11.770000 21.240000 19.470000
403 Cu 15.310000 21.240000 1.770000
404 Cu 13.540000 21.240000 3.540000
405 Cu 15.310000 21.240000 5.310000
406 Cu 13.540000 21.240000 7.080000
407 Cu 15.310000 21.240000 8.850000
408 Cu 13.540000 21.240000 10.620000
409 Cu 15.310000 21.240000 12.390000
410 Cu 13.540000 21.240000 14.160000
411 Cu 15.310000 21.240000 15.930000
412 Cu 13.540000 21.240000 17.700000
413 Cu 15.310000 21.240000 19.470000
414 Cu 13.540000 21.240000 21.240000
415 Cu 18.850000 21.240000 1.770000
416 Cu 17.080000 21.240000 3.540000
417 Cu 18.850000 21.240000 5.310000
418 Cu 17.080000 21.240000 7.080000
419 Cu 18.850000 21.240000 8.850000
420 Cu 17.080000 21.240000 10.620000
421 Cu 18.850000 21.240000 12.390000
422 Cu 17.080000 21.240000 14.160000
423 Cu 18.850000 21.240000 15.930000
424 Cu 17.080000 21.240000 17.700000
425 Cu 18.850000 21.240000 19.470000
426 Cu 17.080000 21.240000 21.240000
427 Cu 20.620000 21.240000 3.540000
428 Cu 20.620000 21.240000 7.080000
429 Cu 20.620000 21.240000 10.620000
430 Cu 20.620000 21.240000 14.160000
431 Cu 20.620000 21.240000 17.700000
432 Cu 20.620000 21.240000 21.240000
433 Cu 22.390000 1.770000 3.540000
434 Cu 22.390000 1.770000 7.080000
435 Cu 22.390000 1.770000 10.620000
436 Cu 22.390000 1.770000 14.160000
437 Cu 22.390000 1.770000 17.700000
438 Cu 22.390000 1.770000 21.240000
439 Cu 24.160000 1.770000 1.770000
440 Cu 24.160000 1.770000 5.310000
441 Cu 25.930000 1.770000 3.540000
442 Cu 24.160000 1.770000 8.850000
443 Cu 25.930000 1.770000 7.080000
444 Cu 24.160000 1.770000 12.390000
445 Cu 25.930000 1.770000 10.620000
446 Cu 24.160000 1.770000 15.930000
447 Cu 25.930000 1.770000 14.160000
448 Cu 24.160000 1.770000 19.470000
449 Cu 25.930000 1.770000 17.700000
450 Cu 25.930000 1.770000 21.240000
451 Cu 27.700000 1.770000 1.770000
452 Cu 27.700000 1.770000 5.310000
453 Cu 29.470000 1.770000 3.540000
454 Cu 27.700000 1.770000 8.850000
455 Cu 29.470000 1.770000 7.080000
456 Cu 27.700000 1.770000 12.390000
457 Cu 29.470000 1.770000 10.620000
458 Cu 27.700000 1.770000 15.930000
459 Cu 29.470000 1.770000 14.160000
460 Cu 27.700000 1.770000 19.470000
461 Cu 29.470000 1.770000 17.700000
462 Cu 29.470000 1.770000 21.240000
463 Cu 31.240000 1.770000 1.770000
464 Cu 31.240000 1.770000 5.310000
465 Cu 31.240000 1.770000 8.850000
466 Cu 31.240000 1.770000 12.390000
467 Cu 31.240000 1.770000 15.930000
468 Cu 31.240000 1.770000 19.470000
469 Cu 22.390000 3.540000 1.770000
470 Cu 22.390000 3.540000 5.310000
471 Cu 22.390000 5.310000 3.540000
472 Cu 22.390000 3.540000 8.850000
473 Cu 22.390000 5.310000 7.080000
474 Cu 22.390000 3.540000 12.390000
475 Cu 22.390000 5.310000 10.620000
476 Cu 22.390000 3.540000 15.930000
477 Cu 22.390000 5.310000 14.160000
478 Cu 22.390000 3.540000 19.470000
479 Cu 22.390000 5.310000 17.700000
480 Cu 22.390000 5.310000 21.240000
481 Cu 24.160000 5.310000 1.770000
482 Cu 25.930000 3.540000 1.770000
483 Cu 24.160000 3.540000 3.540000
484 Cu 24.160000 5.310000 5.310000
485 Cu 25.930000 3.540000 5.310000
486 Cu 25.930000 5.310000 3.540000
487 Cu 24.160000 3.540000 7.080000
488 Cu 24.160000 5.310000 8.850000
489 Cu 25.930000 3.540000 8.850000
490 Cu 25.930000 5.310000 7.080000
491 Cu 24.160000 3.540000 10.620000
492 Cu 24.160000 5.310000 12.390000
493 Cu 25.930000 3.540000 12.390000
494 Cu 25.930000 5.310000 10.620000
495 Cu 24.160000 3.540000 14.160000
496 Cu 24.160000 5.310000 15.930000
497 Cu 25.930000 3.540000 15.930000
498 Cu 25.930000 5.310000 14.160000
499 Cu 24.160000 3.540000 17.700000
500 Cu 24.160000 5.310000 19.470000
501 Cu 25.930000 3.540000 19.470000
502 Cu 25.930000 5.310000 17.700000
503 Cu 24.160000 3.540000 21.240000
504 Cu 25.930000 5.310000 21.240000
505 Cu 27.700000 5.310000 1.770000
506 Cu 29.470000 3.540000 1.770000
507 Cu 27.700000 3.540000 3.540000
508 Cu 27.700000 5.310000 5.310000
509 Cu 29.470000 3.540000 5.310000
510 Cu 29.470000 5.310000 3.540000
511 Cu 27.700000 3.540000 7.080000
512 Cu 27.700000 5.310000 8.850000
513 Cu 29.470000 3.540000 8.850000
514 Cu 29.470000 5.310000 7.080000
515 Cu 27.700000 3.540000 10.620000
516 Cu 27.700000 5.310000 12.390000
517 Cu 29.470000 3.540000 12.390000
518 Cu 29.470000 5.310000 10.620000
519 Cu 27.700000 3.540000 14.160000
520 Cu 27.700000 5.310000 15.930000
521 Cu 29.470000 3.540000 15.930000
522 Cu 29.470000 5.310000 14.160000
523 Cu 27.700000 3.540000 17.700000
524 Cu 27.700000 5.310000 19.470000
525 Cu 29.470000 3.540000 19.470000
526 Cu 29.470000 5.310000 17.700000
527 Cu 27.700000 3.540000 21.240000
528 Cu 29.470000 5.310000 21.240000
529 Cu 31.240000 5.310000 1.770000
530 Cu 31.240000 3.540000 3.540000
531 Cu 31.240000 5.310000 5.310000
532 Cu 31.240000 3.540000 7.080000
533 Cu 31.240000 5.310000 8.850000
534 Cu 31.240000 3.540000 10.620000
535 Cu 31.240000 5.310000 12.390000
536 Cu 31.240000 3.540000 14.160000
537 Cu 31.240000 5.310000 15.930000
538 Cu 31.240000 3.540000 17.700000
539 Cu 31.240000 5.310000 19.470000
540 Cu 31.240000 3.540000 21.240000
541 Cu 22.390000 7.080000 1.770000
542 Cu 22.390000 7.080000 5.310000
543 Cu 22.390000 8.850000 3.540000
544 Cu 22.390000 7.080000 8.850000
545 Cu 22.390000 8.850000 7.080000
546 Cu 22.390000 7.080000 12.390000
547 Cu 22.390000 8.850000 10.620000
548 Cu 22.390000 7.080000 15.930000
549 Cu 22.390000 8.850000 14.160000
550 Cu 22.390000 7.080000 19.470000
551 Cu 22.390000 8.850000 17.700000
552 Cu 22.390000 8.850000 21.240000
553 Cu 24.160000 8.850000 1.770000
554 Cu 25.930000 7.080000 1.770000
555 Cu 24.160000 7.080000 3.540000
556 Cu 24.160000 8.850000 5.310000
557 Cu 25.930000 7.080000 5.310000
558 Cu 25.930000 8.850000 3.540000
559 Cu 24.160000 7.080000 7.080000
560 Cu 24.160000 8.850000 8.850000
561 Cu 25.930000 7.080000 8.850000
562 Cu 25.930000 8.850000 7.080000
563 Cu 24.160000 7.080000 10.620000
564 Cu 24.160000 8.850000 12.390000
565 Cu 25.930000 7.080000 12.390000
566 Cu 25.930000 8.850000 10.620000
567 Cu 24.160000 7.080000 14.160000
568 Cu 24.160000 8.850000 15.930000
569 Cu 25.930000 7.080000 15.930000
570 Cu 25.930000 8.850000 14.160000
571 Cu 24.160000 7.080000 17.700000
572 Cu 24.160000 8.850000 19.470000
573 Cu 25.930000 7.080000 19.470000
574 Cu 25.930000 8.850000 17.700000
575 Cu 24.160000 7.080000 21.240000
576 Cu 25.930000 8.850000 21.240000
577 Cu 27.700000 8.850000 1.770000
578 Cu 29.470000 7.080000 1.770000
579 Cu 27.700000 7.080000 3.540000
580 Cu 27.700000 8.850000 5.310000
581 Cu 29.470000 7.080000 5.310000
582 Cu 29.470000 8.850000 3.540000
583 Cu 27.700000 7.080000 7.080000
584 Cu 27.700000 8.850000 8.850000
585 Cu 29.470000 7.080000 8.850000
586 Cu 29.470000 8.850000 7.080000
587 Cu 27.700000 7.080000 10.620000
588 Cu 27.700000 8.850000 12.390000
589 Cu 29.470000 7.080000 12.390000
590 Cu 29.470000 8.850000 10.620000
591 Cu 27.700000 7.080000 14.160000
592 Cu 27.700000 8.850000 15.930000
593 Cu 29.470000 7.080000 15.930000
594 Cu 29.470000 8.850000 14.160000
595 Cu 27.700000 7.080000 17.700000
596 Cu 27.700000 8.850000 19.470000
597 Cu 29.470000 7.080000 19.470000
598 Cu 29.470000 8.850000 17.700000
599 Cu 27.700000 7.080000 21.240000
600 Cu 29.470000 8.850000 21.240000
601 Cu 31.240000 8.850000 1.770000
602 Cu 31.240000 7.080000 3.540000
603 Cu 31.240000 8.850000 5.310000
604 Cu 31.240000 7.080000 7.080000
605 Cu 31.240000 8.850000 8.850000
606 Cu 31.240000 7.080000 10.620000
607 Cu 31.240000 8.850000 12.390000
608 Cu 31.240000 7.080000 14.160000
609 Cu 31.240000 8.850000 15.930000
610 Cu 31.240000 7.080000 17.700000
611 Cu 31.240000 8.850000 19.470000
612 Cu 31.240000 7.080000 21.240000
613 Cu 22.376740 10.606740 1.256740
614 Cu 22.390000 10.620000 5.310000
615 Cu 22.390000 12.390000 3.540000
616 Cu 22.390000 10.620000 8.850000
617 Cu 22.390000 12.390000 7.080000
618 Cu 22.390000 10.620000 12.390000
619 Cu 22.390000 12.390000 10.620000
620 Cu 22.390000 10.620000 15.930000
621 Cu 22.390000 12.390000 14.160000
622 Cu 22.390000 10.620000 19.470000
623 Cu 22.390000 12.390000 17.700000
624 Cu 22.390000 12.390000 21.240000
625 Cu 24.160000 12.390000 1.770000
626 Cu 25.930000 10.620000 1.770000
627 Cu 24.160000 10.620000 3.540000
628 Cu 24.160000 12.390000 5.310000
629 Cu 25.930000 10.620000 5.310000
630 Cu 25.930000 12.390000 3.540000
631 Cu 24.160000 10.620000 7.080000
632 Cu 24.160000 12.390000 8.850000
633 Cu 25.930000 10.620000 8.850000
634 Cu 25.930000 12.390000 7.080000
635 Cu 24.160000 10.620000 10.620000
636 Cu 24.160000 12.390000 12.390000
637 Cu 25.930000 10.620000 12.390000
638 Cu 25.930000 12.390000 10.620000
639 Cu 24.160000 10.620000 14.160000
640 Cu 24.160000 12.390000 15.930000
641 Cu 25.930000 10.620000 15.930000
642 Cu 25.930000 12.390000 14.160000
643 Cu 24.160000 10.620000 17.700000
644 Cu 24.160000 12.390000 19.470000
645 Cu 25.930000 10.620000 19.470000
646 Cu 25.930000 12.390000 17.700000
647 Cu 24.160000 10.620000 21.240000
648 Cu 25.930000 12.390000 21.240000
649 Cu 27.700000 12.390000 1.770000
650 Cu 29.470000 10.620000 1.770000
651 Cu 27.700000 10.620000 3.540000
652 Cu 27.700000 12.390000 5.310000
653 Cu 29.470000 10.620000 5.310000
654 Cu 29.470000 12.390000 3.540000
655 Cu 27.700000 10.620000 7.080000
656 Cu 27.700000 12.390000 8.850000
657 Cu 29.470000 10.620000 8.850000
658 Cu 29.470000 12.390000 7.080000
659 Cu 27.700000 10.620000 10.620000
660 Cu 27.700000 12.390000 12.390000
661 Cu 29.470000 10.620000 12.390000
662 Cu 29.470000 12.390000 10.620000
663 Cu 27.700000 10.620000 14.160000
664 Cu 27.700000 12.390000 15.930000
665 Cu 29.470000 10.620000 15.930000
666 Cu 29.470000 12.390000 14.160000
667 Cu 27.700000 10.620000 17.700000
668 Cu 27.700000 12.390000 19.470000
669 Cu 29.470000 10.620000 19.470000
670 Cu 29.470000 12.390000 17.700000
671 Cu 27.700000 10.620000 21.240000
672 Cu 29.470000 12.390000 21.240000
673 Cu 31.240000 12.390000 1.770000
674 Cu 31.240000 10.620000 3.540000
675 Cu 31.240000 12.390000 5.310000
676 Cu 31.240000 10.620000 7.080000
677 Cu 31.240000 12.390000 8.850000
678 Cu 31.240000 10.620000 10.620000
679 Cu 31.240000 12.390000 12.390000
680 Cu 31.240000 10.620000 14.160000
681 Cu 31.240000 12.390000 15.930000
682 Cu 31.240000 10.620000 17.700000
683 Cu 31.240000 12.390000 19.470000
684 Cu 31.240000 10.620000 21.240000
685 Cu 22.390000 14.160000 1.770000
686 Cu 22.390000 14.160000 5.310000
687 Cu 22.390000 15.930000 3.540000
688 Cu 22.390000 14.160000 8.850000
689 Cu 22.390000 15.930000 7.080000
690 Cu 22.390000 14.160000 12.390000
691 Cu 22.390000 15.930000 10.620000
692 Cu 22.390000 14.160000 15.930000
693 Cu 22.390000 15.930000 14.160000
694 Cu 22.390000 14.160000 19.470000
695 Cu 22.390000 15.930000 17.700000
696 Cu 22.390000 15.930000 21.240000
697 Cu 24.160000 15.930000 1.770000
698 Cu 25.930000 14.160000 1.770000
699 Cu 24.160000 14.160000 3.540000
700 Cu 24.160000 15.930000 5.310000
701 Cu 25.930000 14.160000 5.310000
702 Cu 25.930000 15.930000 3.540000
703 Cu 24.160000 14.160000 7.080000
704 Cu 24.160000 15.930000 8.850000
705 Cu 25.930000 14.160000 8.850000
706 Cu 25.930000 15.930000 7.080000
707 Cu 24.160000 14.160000 10.620000
708 Cu 24.160000 15.930000 12.390000
709 Cu 25.930000 14.160000 12.390000
710 Cu 25.930000 15.930000 10.620000
711 Cu 24.160000 14.160000 14.160000
712 Cu 24.160000 15.930000 15.930000
713 Cu 25.930000 14.160000 15.930000
714 Cu 25.930000 15.930000 14.160000
715 Cu 24.160000 14.160000 17.700000
716 Cu 24.160000 15.930000 19.470000
717 Cu 25.930000 14.160000 19.470000
718 Cu 25.930000 15.930000 17.700000
719 Cu 24.160000 14.160000 21.240000
720 Cu 25.930000 15.930000 21.240000
721 Cu 27.700000 15.930000 1.770000
722 Cu 29.470000 14.160000 1.770000
723 Cu 27.700000 14.160000 3.540000
724 Cu 27.700000 15.930000 5.310000
725 Cu 29.470000 14.160000 5.310000
726 Cu 29.470000 15.930000 3.540000
727 Cu 27.700000 14.160000 7.080000
728 Cu 27.700000 15.930000 8.850000
729 Cu 29.470000 14.160000 8.850000
730 Cu 29.470000 15.930000 7.080000
731 Cu 27.700000 14.160000 10.620000
732 Cu 27.700000 15.930000 12.390000
733 Cu 29.470000 14.160000 12.390000
734 Cu 29.470000 15.930000 10.620000
735 Cu 27.700000 14.160000 14.160000
736 Cu 27.700000 15.930000 15.930000
737 Cu 29.470000 14.160000 15.930000
738 Cu 29.470000 15.930000 14.160000
739 Cu 27.700000 14.160000 17.700000
740 Cu 27.700000 15.930000 19.470000
741 Cu 29.470000 14.160000 19.470000
742 Cu 29.470000 15.930000 17.700000
743 Cu 27.700000 14.160000 21.240000
744 Cu 29.470000 15.930000 21.240000
745 Cu 31.240000 15.930000 1.770000
746 Cu 31.240000 14.160000 3.540000
747 Cu 31.240000 15.930000 5.310000
748 Cu 31.240000 14.160000 7.080000
749 Cu 31.240000 15.930000 8.850000
750 Cu 31.240000 14.160000 10.620000
751 Cu 31.240000 15.930000 12.390000
752 Cu 31.240000 14.160000 14.160000
753 Cu 31.240000 15.930000 15.930000
754 Cu 31.240000 14.160000 17.700000
755 Cu 31.240000 15.930000 19.470000
756 Cu 31.240000 14.160000 21.240000
757 Cu 22.390000 17.700000 1.770000
758 Cu 22.390000 17.700000 5.310000
759 Cu 22.390000 19.470000 3.540000
760 Cu 22.390000 17.700000 8.850000
761 Cu 22.390000 19.470000 7.080000
762 Cu 22.390000 17.700000 12.390000
763 Cu 22.390000 19.470000 10.620000
764 Cu 22.390000 17.700000 15.930000
765 Cu 22.390000 19.470000 14.160000
766 Cu 22.390000 17.700000 19.470000
767 Cu 22.390000 19.470000 17.700000
768 Cu 22.390000 19.470000 21.240000
769 Cu 24.160000 19.470000 1.770000
770 Cu 25.930000 17.700000 1.770000
771 Cu 24.160000 17.700000 3.540000
772 Cu 24.160000 19.470000 5.310000
773 Cu 25.930000 17.700000 5.310000
774 Cu 25.930000 19.470000 3.540000
775 Cu 24.160000 17.700000 7.080000
776 Cu 24.160000 19.470000 8.850000
777 Cu 25.930000 17.700000 8.850000
778 Cu 25.930000 19.470000 7.080000
779 Cu 24.160000 17.700000 10.620000
780 Cu 24.160000 19.470000 12.390000
781 Cu 25.930000 17.700000 12.390000
782 Cu 25.930000 19.470000 10.620000
783 Cu 24.160000 17.700000 14.160000
784 Cu 24.160000 19.470000 15.930000
785 Cu 25.930000 17.700000 15.930000
786 Cu 25.930000 19.470000 14.160000
787 Cu 24.160000 17.700000 17.700000
788 Cu 24.160000 19.470000 19.470000
789 Cu 25.930000 17.700000 19.470000
790 Cu 25.930000 19.470000 17.700000
791 Cu 24.160000 17.700000 21.240000
792 Cu 25.930000 19.470000 21.240000
793 Cu 27.700000 19.470000 1.770000
794 Cu 29.470000 17.700000 1.770000
795 Cu 27.700000 17.700000 3.540000
796 Cu 27.700000 19.470000 5.310000
797 Cu 29.470000 17.700000 5.310000
798 Cu 29.470000 19.470000 3.540000
799 Cu 27.700000 17.700000 7.080000
800 Cu 27.700000 19.470000 8.850000
801 Cu 29.470000 17.700000 8.850000
802 Cu 29.470000 19.470000 7.080000
803 Cu 27.700000 17.700000 10.620000
804 Cu 27.700000 19.470000 12.390000
805 Cu 29.470000 17.700000 12.390000
806 Cu 29.470000 19.470000 10.620000
807 Cu 27.700000 17.700000 14.160000
808 Cu 27.700000 19.470000 15.930000
809 Cu 29.470000 17.700000 15.930000
810 Cu 29.470000 19.470000 14.160000
811 Cu 27.700000 17.700000 17.700000
812 Cu 27.700000 19.470000 19.470000
813 Cu 29.470000 17.700000 19.470000
814 Cu 29.470000 19.470000 17.700000
815 Cu 27.700000 17.700000 21.240000
816 Cu 29.470000 19.470000 21.240000
817 Cu 31.240000 19.470000 1.770000
818 Cu 31.240000 17.700000 3.540000
819 Cu 31.240000 19.470000 5.310000
820 Cu 31.240000 17.700000 7.080000
821 Cu 31.240000 19.470000 8.850000
822 Cu 31.240000 17.700000 10.620000
823 Cu 31.240000 19.470000 12.390000
824 Cu 31.240000 17.700000 14.160000
825 Cu 31.240000 19.470000 15.930000
826 Cu 31.240000 17.700000 17.700000
827 Cu 31.240000 19.470000 19.470000
828 Cu 31.240000 17.700000 21.240000