ITEM: TIMESTEP
70207
ITEM: NUMBER OF ATOMS
21600
ITEM: BOX BOUNDS pp pp pp
-4.1576142079687489e-01 1.2713576142079820e+02
2.1918545116137347e-02 3.5178081454883795e+01
3.2440854356264981e-02 5.2767559145643773e+01
ITEM: ATOMS id type x y z
1 1 -0.224356 1.53897 2.04654
9913 1 1.50159 1.58992 0.244199
2 1 3.26951 1.57225 2.00334
9914 1 5.03621 1.56539 0.24361
3 1 6.79773 1.56623 1.99974
4 1 10.3232 1.56681 1.99961
9917 1 8.56031 1.56683 0.241689
5 1 13.8487 1.56676 1.99962
9919 1 12.0859 1.56676 0.241794
9921 1 15.6115 1.56676 0.241785
6 1 17.3742 1.56676 1.99962
9923 1 19.137 1.56676 0.241785
7 1 20.8997 1.56676 1.99962
9924 1 22.6625 1.56676 0.241785
8 1 24.4253 1.56676 1.99962
9926 1 26.188 1.56676 0.241785
9 1 27.9508 1.56676 1.99962
10 1 31.4763 1.56676 1.99962
9929 1 29.7135 1.56676 0.241784
11 1 35.0018 1.56676 1.99962
9931 1 33.2391 1.56676 0.241784
9933 1 36.7646 1.56676 0.241784
12 1 38.5274 1.56676 1.99962
9934 1 40.2901 1.56676 0.241784
13 1 42.0529 1.56676 1.99962
9936 1 43.8156 1.56676 0.241784
14 1 45.5784 1.56676 1.99962
15 1 49.1039 1.56676 1.99962
9939 1 47.3412 1.56676 0.241783
16 1 52.6294 1.56681 1.99961
9941 1 50.8667 1.56676 0.241792
9943 1 54.3923 1.56683 0.241687
17 1 56.1549 1.56623 1.99974
9944 1 57.9164 1.56539 0.243608
18 1 59.6831 1.57225 2.00334
9946 1 61.451 1.58992 0.244197
19 1 63.177 1.53897 2.04654
19317 1 65.3142 2.3241 1.65399
19318 1 67.0401 0.851685 0.613337
19320 1 70.5747 0.865928 0.593361
19321 1 68.808 2.26958 1.65469
19323 1 72.3363 2.27031 1.64771
19325 1 74.0988 0.863529 0.593362
19326 1 75.8617 2.26986 1.6481
19328 1 77.6245 0.863657 0.593367
19329 1 79.3872 2.2699 1.64806
19330 1 81.15 0.863649 0.593364
19332 1 84.6755 0.86365 0.593365
19333 1 82.9127 2.2699 1.64807
19335 1 88.201 0.86365 0.593365
19336 1 86.4383 2.2699 1.64807
19338 1 89.9638 2.2699 1.64807
19340 1 91.7265 0.86365 0.593365
19341 1 93.4893 2.2699 1.64807
19343 1 95.2521 0.86365 0.593365
19344 1 97.0148 2.2699 1.64807
19345 1 98.7776 0.86365 0.593366
19347 1 102.303 0.86365 0.593366
19348 1 100.54 2.2699 1.64807
19350 1 105.829 0.86365 0.593366
19351 1 104.066 2.2699 1.64807
19353 1 107.591 2.2699 1.64807
19355 1 109.354 0.863649 0.593365
19356 1 111.117 2.2699 1.64807
19358 1 112.88 0.863656 0.593368
19359 1 114.642 2.26986 1.6481
19361 1 116.405 0.863528 0.593363
19362 1 118.168 2.27031 1.64771
19363 1 119.929 0.865928 0.593362
19365 1 123.464 0.851684 0.613338
19366 1 121.696 2.26958 1.65469
19369 1 125.19 2.3241 1.65399
20 1 1.50159 3.32698 1.97647
20136 1 -0.224363 5.1293 2.02742
9948 1 1.50159 5.05922 0.239376
21 1 3.26951 5.0861 1.99414
22 1 5.03621 3.32639 2.00099
9950 1 3.28399 3.32457 0.241787
9951 1 5.03621 5.08375 0.239965
23 1 6.79773 5.08249 2.00016
9954 1 6.79733 3.32457 0.241787
24 1 8.56031 3.32447 1.99955
25 1 10.3232 5.08237 1.99958
9956 1 8.56031 5.08231 0.241884
9957 1 10.3232 3.32457 0.241786
26 1 12.0859 3.32458 1.99963
27 1 13.8487 5.08238 1.99963
9960 1 12.0859 5.08238 0.241778
9961 1 13.8487 3.32457 0.241786
28 1 15.6115 3.32457 1.99962
9965 1 15.6115 5.08238 0.241786
29 1 17.3742 5.08238 1.99962
9964 1 17.3742 3.32457 0.241785
30 1 19.137 3.32457 1.99962
9968 1 19.137 5.08238 0.241785
31 1 20.8997 5.08238 1.99962
32 1 22.6625 3.32457 1.99962
9970 1 20.8997 3.32457 0.241785
9971 1 22.6625 5.08238 0.241785
33 1 24.4253 5.08238 1.99962
34 1 26.188 3.32457 1.99962
9974 1 26.188 5.08238 0.241785
9975 1 24.4253 3.32457 0.241785
35 1 27.9508 5.08238 1.99962
9978 1 27.9508 3.32457 0.241784
36 1 29.7135 3.32457 1.99962
37 1 31.4763 5.08238 1.99962
9980 1 31.4763 3.32457 0.241784
9981 1 29.7135 5.08238 0.241784
38 1 33.2391 3.32457 1.99962
39 1 35.0018 5.08238 1.99962
9984 1 33.2391 5.08238 0.241784
9985 1 35.0018 3.32457 0.241784
40 1 36.7646 3.32457 1.99962
9988 1 36.7646 5.08238 0.241784
41 1 38.5274 5.08238 1.99962
42 1 40.2901 3.32457 1.99962
9990 1 38.5274 3.32457 0.241784
9991 1 40.2901 5.08238 0.241784
43 1 42.0529 5.08238 1.99962
44 1 43.8156 3.32457 1.99962
9994 1 42.0529 3.32457 0.241784
9995 1 43.8156 5.08238 0.241784
45 1 45.5784 5.08238 1.99962
9998 1 45.5784 3.32457 0.241784
46 1 47.3412 3.32457 1.99962
47 1 49.1039 5.08238 1.99963
10000 1 49.1039 3.32457 0.241784
10001 1 47.3412 5.08238 0.241784
48 1 50.8667 3.32458 1.99962
49 1 52.6294 5.08237 1.99957
10004 1 50.8667 5.08238 0.241776
10005 1 52.6294 3.32457 0.241784
50 1 54.3923 3.32447 1.99955
10008 1 54.3923 5.08231 0.241882
51 1 56.1549 5.08249 2.00016
52 1 57.9164 3.32639 2.00099
10010 1 57.9164 5.08375 0.239962
10011 1 56.1553 3.32457 0.241785
53 1 59.6831 5.0861 1.99413
54 1 61.451 3.32698 1.97647
10014 1 59.6686 3.32457 0.241785
10015 1 61.451 5.05922 0.239373
19370 1 63.3862 3.32457 0.241787
20065 1 63.177 5.1293 2.02742
19372 1 65.3142 4.73674 1.24228
19373 1 67.0876 3.32458 0.241795
20030 1 67.0401 3.69611 2.71473
19376 1 70.5681 3.32458 0.241796
19378 1 68.808 4.73745 1.29682
20031 1 70.5747 3.67614 2.70049
19380 1 72.3363 4.73047 1.29609
19382 1 74.0993 3.32458 0.241796
19384 1 75.8617 4.73086 1.29654
20034 1 74.0988 3.67614 2.70289
19386 1 77.6244 3.32458 0.241796
19388 1 79.3872 4.73083 1.2965
20036 1 77.6245 3.67615 2.70276
19389 1 81.15 3.32458 0.241797
20038 1 81.15 3.67614 2.70277
19392 1 84.6755 3.32458 0.241797
19394 1 82.9127 4.73083 1.2965
20039 1 84.6755 3.67614 2.70277
19396 1 88.201 3.32458 0.241797
19398 1 86.4383 4.73083 1.2965
20041 1 88.201 3.67614 2.70277
19400 1 89.9638 4.73083 1.2965
19402 1 91.7265 3.32458 0.241798
19404 1 93.4893 4.73083 1.2965
20044 1 91.7265 3.67614 2.70277
19406 1 95.2521 3.32458 0.241798
19408 1 97.0148 4.73083 1.2965
20046 1 95.2521 3.67614 2.70277
19409 1 98.7776 3.32458 0.241798
20048 1 98.7776 3.67614 2.70277
19412 1 102.303 3.32458 0.241798
19414 1 100.54 4.73083 1.2965
20049 1 102.303 3.67614 2.70277
19416 1 105.829 3.32458 0.241798
19418 1 104.066 4.73083 1.2965
20051 1 105.829 3.67614 2.70277
19420 1 107.591 4.73083 1.2965
19422 1 109.354 3.32458 0.241798
20054 1 109.354 3.67614 2.70277
19424 1 111.117 4.73082 1.2965
19426 1 112.88 3.32458 0.241798
19428 1 114.642 4.73086 1.29654
20056 1 112.88 3.67614 2.70276
19430 1 116.405 3.32458 0.241797
19432 1 118.168 4.73047 1.29609
20058 1 116.405 3.67614 2.70289
19433 1 119.936 3.32458 0.241797
20060 1 119.929 3.67614 2.70049
19436 1 123.417 3.32458 0.241797
19438 1 121.696 4.73745 1.29682
20061 1 123.464 3.69611 2.71473
19440 1 127.118 3.32457 0.241789
19441 1 125.19 4.73674 1.24228
55 1 1.50159 6.86334 2.00204
19478 1 -0.224366 6.79327 0.213996
10018 1 1.50159 8.59558 0.264943
56 1 5.03621 6.83882 2.00145
57 1 3.28399 8.59799 1.99962
10021 1 5.03621 8.59617 0.240418
10022 1 3.26951 6.83647 0.247276
58 1 6.79733 8.59799 1.99962
10025 1 6.79773 6.84007 0.241252
59 1 8.56031 6.84026 1.99953
60 1 10.3232 8.59799 1.99962
10027 1 10.3232 6.8402 0.241834
10028 1 8.56031 8.59809 0.241857
61 1 12.0859 6.84018 1.99963
62 1 13.8487 8.59799 1.99962
10031 1 13.8487 6.84018 0.241782
10032 1 12.0859 8.59799 0.241784
63 1 15.6115 6.84018 1.99962
10036 1 15.6115 8.59799 0.241786
10035 1 17.3742 6.84019 0.241786
64 1 17.3742 8.59799 1.99962
65 1 19.137 6.84019 1.99962
10039 1 19.137 8.59799 0.241785
66 1 22.6625 6.84018 1.99962
10041 1 20.8997 6.84018 0.241785
67 1 20.8997 8.59799 1.99962
10042 1 22.6625 8.59799 0.241785
68 1 26.188 6.84018 1.99962
10045 1 24.4253 6.84018 0.241785
10046 1 26.188 8.59799 0.241784
69 1 24.4253 8.59799 1.99962
70 1 27.9508 8.59799 1.99962
10049 1 27.9508 6.84018 0.241784
71 1 29.7135 6.84018 1.99962
72 1 31.4763 8.59799 1.99962
10051 1 31.4763 6.84019 0.241784
10052 1 29.7135 8.59799 0.241784
73 1 33.2391 6.84019 1.99962
74 1 35.0018 8.59799 1.99962
10055 1 35.0018 6.84019 0.241784
10056 1 33.2391 8.59799 0.241784
75 1 36.7646 6.84019 1.99962
10059 1 36.7646 8.59799 0.241784
76 1 40.2901 6.84019 1.99962
10061 1 38.5274 6.84019 0.241784
77 1 38.5274 8.59799 1.99962
10062 1 40.2901 8.59799 0.241784
78 1 43.8156 6.84019 1.99962
10065 1 42.0529 6.84019 0.241784
10066 1 43.8156 8.59799 0.241784
79 1 42.0529 8.59799 1.99962
80 1 45.5784 8.59799 1.99962
10069 1 45.5784 6.84019 0.241784
81 1 47.3412 6.84019 1.99962
82 1 49.1039 8.59799 1.99962
10071 1 49.1039 6.84018 0.24178
10072 1 47.3412 8.59799 0.241784
83 1 50.8667 6.84018 1.99963
84 1 52.6294 8.59799 1.99962
10075 1 52.6294 6.8402 0.241832
10076 1 50.8667 8.59799 0.241782
85 1 54.3923 6.84026 1.99952
10079 1 54.3923 8.59809 0.241855
86 1 57.9164 6.83882 2.00144
87 1 56.1553 8.59799 1.99962
10081 1 56.1549 6.84007 0.24125
10082 1 57.9164 8.59617 0.240415
88 1 61.451 6.86335 2.00203
89 1 59.6686 8.59799 1.99962
10085 1 61.451 8.59558 0.264941
10086 1 59.6831 6.83647 0.247274
20066 1 63.3862 8.598 1.99962
19442 1 63.177 6.79327 0.213994
19443 1 65.3142 7.18584 0.999144
20069 1 67.0401 6.12511 2.37117
20070 1 67.0876 8.598 1.99963
19446 1 68.808 7.18513 0.944612
20072 1 70.5747 6.13935 2.3512
20073 1 70.5681 8.598 1.99963
19447 1 72.3363 7.19212 0.945343
19449 1 75.8617 7.19173 0.944894
20077 1 74.0988 6.13695 2.3512
20078 1 74.0993 8.598 1.99963
19451 1 79.3872 7.19176 0.944935
20081 1 77.6245 6.13708 2.3512
20082 1 77.6244 8.59801 1.99963
20085 1 81.15 6.13707 2.3512
20086 1 81.15 8.59801 1.99963
19454 1 82.9127 7.19176 0.944932
20088 1 84.6755 6.13707 2.3512
20089 1 84.6755 8.59801 1.99963
19456 1 86.4383 7.19176 0.944932
20092 1 88.201 6.13707 2.3512
20093 1 88.201 8.59801 1.99963
19457 1 89.9638 7.19176 0.944933
19459 1 93.4893 7.19176 0.944933
20097 1 91.7265 6.13707 2.3512
20098 1 91.7265 8.59801 1.99964
19461 1 97.0148 7.19176 0.944933
20101 1 95.2521 6.13707 2.3512
20102 1 95.2521 8.59801 1.99964
20105 1 98.7776 6.13707 2.3512
20106 1 98.7776 8.59801 1.99964
19464 1 100.54 7.19176 0.944933
20108 1 102.303 6.13707 2.3512
20109 1 102.303 8.59801 1.99964
19466 1 104.066 7.19176 0.944933
20112 1 105.829 6.13707 2.3512
20113 1 105.829 8.59801 1.99964
19467 1 107.591 7.19176 0.944933
20117 1 109.354 6.13707 2.3512
20118 1 109.354 8.59801 1.99964
19469 1 111.117 7.19176 0.944936
19471 1 114.642 7.19173 0.944896
20121 1 112.88 6.13708 2.35121
20122 1 112.88 8.598 1.99963
19473 1 118.168 7.19212 0.945344
20125 1 116.405 6.13695 2.3512
20126 1 116.405 8.598 1.99963
20129 1 119.929 6.13935 2.3512
20130 1 119.936 8.598 1.99963
19476 1 121.696 7.18513 0.944613
20132 1 123.464 6.12511 2.37118
20133 1 123.417 8.598 1.99963
20137 1 127.118 8.598 1.99963
19477 1 125.19 7.18584 0.999146
90 1 1.50159 10.3326 1.99721
19531 1 -0.224357 10.3836 0.194867
91 1 5.03621 10.3572 1.9978
10091 1 3.26951 10.3503 0.238069
10093 1 6.79773 10.3563 0.241673
92 1 8.56031 10.3557 1.99972
10094 1 10.3232 10.3558 0.241797
93 1 12.0859 10.3558 1.99962
10096 1 13.8487 10.3558 0.241784
94 1 15.6115 10.3558 1.99962
10098 1 17.3742 10.3558 0.241786
95 1 19.137 10.3558 1.99962
96 1 22.6625 10.3558 1.99962
10101 1 20.8997 10.3558 0.241785
97 1 26.188 10.3558 1.99962
10103 1 24.4253 10.3558 0.241785
10105 1 27.9508 10.3558 0.241784
98 1 29.7135 10.3558 1.99962
10106 1 31.4763 10.3558 0.241784
99 1 33.2391 10.3558 1.99962
10108 1 35.0018 10.3558 0.241784
100 1 36.7646 10.3558 1.99962
101 1 40.2901 10.3558 1.99962
10111 1 38.5274 10.3558 0.241784
102 1 43.8156 10.3558 1.99962
10113 1 42.0529 10.3558 0.241784
10115 1 45.5784 10.3558 0.241784
103 1 47.3412 10.3558 1.99962
10116 1 49.1039 10.3558 0.241783
104 1 50.8667 10.3558 1.99961
10118 1 52.6294 10.3558 0.241795
105 1 54.3923 10.3557 1.99972
106 1 57.9164 10.3572 1.9978
10121 1 56.1549 10.3563 0.241671
107 1 61.451 10.3326 1.99721
10123 1 59.6831 10.3503 0.238066
19479 1 63.177 10.3836 0.194865
19480 1 65.3142 9.59848 0.587444
19482 1 67.0401 11.0709 1.62809
19484 1 68.808 9.65301 0.586739
19485 1 70.5747 11.0567 1.64807
19486 1 72.3363 9.65228 0.593723
19488 1 75.8617 9.65273 0.593332
19489 1 74.0988 11.0591 1.64807
19491 1 79.3872 9.65269 0.593366
19492 1 77.6245 11.0589 1.64806
19494 1 81.15 11.0589 1.64807
19496 1 82.9127 9.65269 0.593364
19497 1 84.6755 11.0589 1.64807
19499 1 86.4383 9.65269 0.593365
19500 1 88.201 11.0589 1.64807
19501 1 89.9638 9.65269 0.593365
19503 1 93.4893 9.65269 0.593365
19504 1 91.7265 11.0589 1.64807
19506 1 97.0148 9.65269 0.593366
19507 1 95.2521 11.0589 1.64807
19509 1 98.7776 11.0589 1.64807
19511 1 100.54 9.65269 0.593366
19512 1 102.303 11.0589 1.64807
19514 1 104.066 9.65269 0.593366
19515 1 105.829 11.0589 1.64807
19516 1 107.591 9.65269 0.593365
19519 1 109.354 11.0589 1.64807
19518 1 111.117 9.65269 0.593367
19521 1 114.642 9.65273 0.593333
19522 1 112.88 11.0589 1.64806
19524 1 118.168 9.65228 0.593724
19525 1 116.405 11.0591 1.64807
19527 1 119.929 11.0567 1.64807
19529 1 121.696 9.65301 0.586741
19530 1 123.464 11.0709 1.62809
19532 1 125.19 9.59848 0.587446
108 1 1.50159 13.869 2.02278
19604 1 -0.224366 12.0667 1.97183
10127 1 -0.224356 13.8436 0.288706
10125 1 1.5491 12.1136 0.241788
109 1 3.26951 12.1099 2.00511
110 1 5.03621 13.8696 1.99825
10128 1 5.02955 12.1136 0.241787
10129 1 3.26951 13.8769 0.245506
111 1 6.79773 12.1135 1.99909
10132 1 6.79773 13.8709 0.241901
112 1 8.56031 13.8715 1.99969
113 1 10.3232 12.1136 1.99967
10134 1 8.56082 12.1136 0.241787
10135 1 10.3232 13.8715 0.241776
114 1 12.0859 13.8714 1.99962
115 1 13.8487 12.1136 1.99962
10138 1 12.0859 12.1136 0.241786
10139 1 13.8487 13.8714 0.241787
116 1 15.6115 13.8714 1.99962
10142 1 15.6115 12.1136 0.241786
117 1 17.3742 12.1136 1.99962
10143 1 17.3742 13.8714 0.241785
118 1 19.137 13.8714 1.99962
10146 1 19.137 12.1136 0.241785
119 1 20.8997 12.1136 1.99962
120 1 22.6625 13.8714 1.99962
10148 1 22.6625 12.1136 0.241785
10149 1 20.8997 13.8714 0.241785
121 1 24.4253 12.1136 1.99962
122 1 26.188 13.8714 1.99962
10152 1 24.4253 13.8714 0.241785
10153 1 26.188 12.1136 0.241784
123 1 27.9508 12.1136 1.99962
10156 1 27.9508 13.8714 0.241784
124 1 29.7135 13.8714 1.99962
125 1 31.4763 12.1136 1.99962
10158 1 29.7135 12.1136 0.241784
10159 1 31.4763 13.8714 0.241784
126 1 33.2391 13.8714 1.99962
127 1 35.0018 12.1136 1.99962
10162 1 35.0018 13.8714 0.241784
10163 1 33.2391 12.1136 0.241784
128 1 36.7646 13.8714 1.99962
10166 1 36.7646 12.1136 0.241784
129 1 38.5274 12.1136 1.99962
130 1 40.2901 13.8714 1.99962
10168 1 40.2901 12.1136 0.241784
10169 1 38.5274 13.8714 0.241784
131 1 42.0529 12.1136 1.99962
132 1 43.8156 13.8714 1.99962
10172 1 43.8156 12.1136 0.241784
10173 1 42.0529 13.8714 0.241784
133 1 45.5784 12.1136 1.99962
10176 1 45.5784 13.8714 0.241784
134 1 47.3412 13.8714 1.99962
135 1 49.1039 12.1136 1.99962
10178 1 49.1039 13.8714 0.241786
10179 1 47.3412 12.1136 0.241784
136 1 50.8667 13.8714 1.99962
137 1 52.6294 12.1136 1.99967
10182 1 50.8667 12.1136 0.241784
10183 1 52.6294 13.8715 0.241774
138 1 54.3923 13.8715 1.99969
10186 1 54.3918 12.1136 0.241785
139 1 56.1549 12.1135 1.99909
140 1 57.9164 13.8696 1.99825
10188 1 57.9231 12.1136 0.241785
10189 1 56.1549 13.8709 0.241899
141 1 59.6831 12.1099 2.00511
142 1 61.451 13.869 2.02278
10192 1 61.4035 12.1136 0.241786
10193 1 59.6831 13.8769 0.245504
19534 1 63.177 12.0667 1.97183
10196 1 63.177 13.8436 0.288704
19536 1 65.105 12.1136 0.241792
19538 1 67.0401 13.4999 1.28453
20178 1 65.3142 12.4593 2.75698
19541 1 68.8225 12.1136 0.241795
19542 1 70.5747 13.5199 1.29878
20180 1 68.808 12.4586 2.70245
19544 1 72.3358 12.1136 0.241796
20182 1 72.3363 12.4655 2.70318
19547 1 75.8617 12.1136 0.241796
19548 1 74.0988 13.5199 1.29638
20183 1 75.8617 12.4652 2.70273
19551 1 79.3872 12.1136 0.241797
19552 1 77.6245 13.5199 1.29651
20185 1 79.3872 12.4652 2.70277
19554 1 81.15 13.5199 1.2965
19557 1 82.9127 12.1136 0.241797
19558 1 84.6755 13.5199 1.2965
20188 1 82.9127 12.4652 2.70277
19561 1 86.4383 12.1136 0.241797
19562 1 88.201 13.5199 1.2965
20190 1 86.4383 12.4652 2.70277
19564 1 89.9638 12.1136 0.241798
20192 1 89.9638 12.4652 2.70277
19567 1 93.4893 12.1136 0.241798
19568 1 91.7265 13.5199 1.2965
20193 1 93.4893 12.4652 2.70277
19571 1 97.0148 12.1136 0.241798
19572 1 95.2521 13.5199 1.2965
20195 1 97.0148 12.4652 2.70277
19574 1 98.7776 13.5199 1.2965
19577 1 100.54 12.1136 0.241798
19578 1 102.303 13.5199 1.2965
20198 1 100.54 12.4652 2.70277
19581 1 104.066 12.1136 0.241798
19582 1 105.829 13.5199 1.2965
20200 1 104.066 12.4652 2.70277
19584 1 107.591 12.1136 0.241798
20202 1 107.591 12.4652 2.70277
19588 1 109.354 13.5199 1.2965
19587 1 111.117 12.1136 0.241798
20203 1 111.117 12.4652 2.70277
19591 1 114.642 12.1136 0.241797
19592 1 112.88 13.5199 1.29651
20205 1 114.642 12.4652 2.70273
19595 1 118.168 12.1136 0.241797
19596 1 116.405 13.5199 1.29638
20207 1 118.168 12.4655 2.70318
19598 1 119.929 13.5199 1.29878
19601 1 121.682 12.1136 0.241797
19602 1 123.464 13.4999 1.28453
20210 1 121.696 12.4586 2.70245
19606 1 125.399 12.1136 0.241794
20212 1 125.19 12.4593 2.75698
143 1 1.5491 17.387 1.99963
19642 1 -0.224357 15.657 1.9527
10197 1 1.50159 15.6316 0.218632
19696 1 -0.224363 17.434 0.269581
144 1 3.26951 15.6237 1.99591
145 1 5.02955 17.387 1.99962
10199 1 5.03621 15.631 0.243157
10200 1 3.26951 17.3908 0.236299
146 1 6.79773 15.6298 1.99951
10203 1 6.79773 17.3871 0.242321
147 1 10.3232 15.6292 1.99963
148 1 8.56082 17.387 1.99962
10205 1 8.56031 15.6291 0.241716
10206 1 10.3232 17.387 0.241739
149 1 13.8487 15.6292 1.99962
150 1 12.0859 17.387 1.99962
10209 1 12.0859 15.6292 0.241788
10210 1 13.8487 17.387 0.24179
152 1 15.6115 17.387 1.99962
10213 1 15.6115 15.6292 0.241786
151 1 17.3742 15.6292 1.99962
10214 1 17.3742 17.387 0.241785
153 1 19.137 17.387 1.99962
10217 1 19.137 15.6292 0.241785
154 1 20.8997 15.6292 1.99962
10219 1 22.6625 15.6292 0.241785
155 1 22.6625 17.387 1.99962
10220 1 20.8997 17.387 0.241785
156 1 24.4253 15.6292 1.99962
157 1 26.188 17.387 1.99962
10223 1 26.188 15.6292 0.241784
10224 1 24.4253 17.387 0.241785
158 1 27.9508 15.6292 1.99962
10227 1 27.9508 17.387 0.241784
159 1 31.4763 15.6292 1.99962
160 1 29.7135 17.387 1.99962
10229 1 29.7135 15.6292 0.241784
10230 1 31.4763 17.387 0.241784
161 1 35.0018 15.6292 1.99962
162 1 33.2391 17.387 1.99962
10233 1 33.2391 15.6292 0.241784
10234 1 35.0018 17.387 0.241784
163 1 36.7646 17.387 1.99962
10237 1 36.7646 15.6292 0.241784
164 1 38.5274 15.6292 1.99962
10239 1 40.2901 15.6292 0.241784
165 1 40.2901 17.387 1.99962
10240 1 38.5274 17.387 0.241784
166 1 42.0529 15.6292 1.99962
167 1 43.8156 17.387 1.99962
10243 1 43.8156 15.6292 0.241784
10244 1 42.0529 17.387 0.241784
168 1 45.5784 15.6292 1.99962
10247 1 45.5784 17.387 0.241784
169 1 49.1039 15.6292 1.99962
170 1 47.3412 17.387 1.99962
10249 1 47.3412 15.6292 0.241784
10250 1 49.1039 17.387 0.241788
171 1 52.6294 15.6292 1.99963
172 1 50.8667 17.387 1.99962
10253 1 50.8667 15.6292 0.241786
10254 1 52.6294 17.387 0.241737
173 1 54.3918 17.387 1.99962
10257 1 54.3923 15.6291 0.241714
174 1 56.1549 15.6298 1.99951
175 1 57.9231 17.387 1.99962
10259 1 57.9164 15.6311 0.243154
10260 1 56.1549 17.3871 0.242319
176 1 59.6831 15.6237 1.9959
177 1 61.4035 17.387 1.99962
10263 1 59.6831 17.3908 0.236296
10264 1 61.451 15.6316 0.21863
19607 1 63.177 15.657 1.9527
19644 1 63.177 17.434 0.269579
19609 1 67.0401 16.0008 0.956894
20214 1 65.3142 14.8719 2.34528
20215 1 65.105 17.387 1.99963
19611 1 70.5747 15.9808 0.94265
20218 1 68.808 14.9264 2.34458
20219 1 68.8225 17.387 1.99963
20222 1 72.3363 14.9257 2.35156
20223 1 72.3358 17.387 1.99963
19614 1 74.0988 15.9808 0.945051
20225 1 75.8617 14.9262 2.35117
20226 1 75.8617 17.387 1.99963
19616 1 77.6245 15.9808 0.944924
20229 1 79.3872 14.9261 2.3512
20230 1 79.3872 17.387 1.99963
19617 1 81.15 15.9808 0.944932
19619 1 84.6755 15.9808 0.944932
20234 1 82.9127 14.9261 2.3512
20235 1 82.9127 17.387 1.99963
19621 1 88.201 15.9808 0.944932
20238 1 86.4383 14.9261 2.3512
20239 1 86.4383 17.387 1.99963
20242 1 89.9638 14.9261 2.3512
20243 1 89.9638 17.387 1.99964
19624 1 91.7265 15.9808 0.944933
20245 1 93.4893 14.9261 2.3512
20246 1 93.4893 17.387 1.99964
19626 1 95.2521 15.9808 0.944933
20249 1 97.0148 14.9261 2.3512
20250 1 97.0148 17.387 1.99964
19627 1 98.7776 15.9808 0.944933
19629 1 102.303 15.9808 0.944933
20254 1 100.54 14.9261 2.3512
20255 1 100.54 17.387 1.99964
19631 1 105.829 15.9808 0.944933
20258 1 104.066 14.9261 2.3512
20259 1 104.066 17.387 1.99964
20262 1 107.591 14.9261 2.3512
20263 1 107.591 17.387 1.99964
19634 1 109.354 15.9808 0.944933
20265 1 111.117 14.9261 2.3512
20266 1 111.117 17.387 1.99963
19636 1 112.88 15.9808 0.944925
20269 1 114.642 14.9262 2.35117
20270 1 114.642 17.387 1.99963
19638 1 116.405 15.9808 0.945052
20273 1 118.168 14.9257 2.35156
20274 1 118.168 17.387 1.99963
19639 1 119.929 15.9808 0.942652
19641 1 123.464 16.0008 0.956896
20278 1 121.696 14.9264 2.34458
20279 1 121.682 17.387 1.99963
20282 1 125.19 14.8719 2.34528
20283 1 125.399 17.387 1.99963
178 1 -0.224355 19.1171 2.04654
10267 1 1.50159 19.168 0.244199
179 1 3.26951 19.1503 2.00334
10268 1 5.03621 19.1435 0.24361
180 1 6.79773 19.1443 1.99974
181 1 10.3232 19.1449 1.99961
10271 1 8.56031 19.1449 0.24169
182 1 13.8487 19.1448 1.99962
10273 1 12.0859 19.1448 0.241794
10275 1 15.6115 19.1448 0.241785
183 1 17.3742 19.1448 1.99962
10277 1 19.137 19.1448 0.241785
184 1 20.8997 19.1448 1.99962
10278 1 22.6625 19.1448 0.241785
185 1 24.4253 19.1448 1.99962
10280 1 26.188 19.1448 0.241785
186 1 27.9508 19.1448 1.99962
187 1 31.4763 19.1448 1.99962
10283 1 29.7135 19.1448 0.241784
188 1 35.0018 19.1448 1.99962
10285 1 33.2391 19.1448 0.241784
10287 1 36.7646 19.1448 0.241784
189 1 38.5274 19.1448 1.99962
10288 1 40.2901 19.1448 0.241784
190 1 42.0529 19.1448 1.99962
10290 1 43.8156 19.1448 0.241784
191 1 45.5784 19.1448 1.99962
192 1 49.1039 19.1448 1.99962
10293 1 47.3412 19.1448 0.241783
193 1 52.6294 19.1449 1.99961
10295 1 50.8667 19.1448 0.241792
10297 1 54.3923 19.1449 0.241687
194 1 56.1549 19.1443 1.99974
10298 1 57.9164 19.1435 0.243608
195 1 59.6831 19.1503 2.00334
10300 1 61.451 19.168 0.244197
196 1 63.177 19.1171 2.04654
19646 1 65.3142 19.9022 1.65399
19647 1 67.0401 18.4298 0.613337
19649 1 70.5747 18.444 0.593361
19650 1 68.808 19.8477 1.65469
19652 1 72.3363 19.8484 1.64771
19654 1 74.0988 18.4416 0.593362
19655 1 75.8617 19.8479 1.6481
19657 1 77.6245 18.4417 0.593367
19658 1 79.3872 19.848 1.64806
19659 1 81.15 18.4417 0.593364
19661 1 84.6755 18.4417 0.593365
19662 1 82.9127 19.848 1.64807
19664 1 88.201 18.4417 0.593365
19665 1 86.4383 19.848 1.64807
19667 1 89.9638 19.848 1.64807
19669 1 91.7265 18.4417 0.593365
19670 1 93.4893 19.848 1.64807
19672 1 95.2521 18.4417 0.593366
19673 1 97.0148 19.848 1.64807
19674 1 98.7776 18.4417 0.593366
19676 1 102.303 18.4417 0.593366
19677 1 100.54 19.848 1.64807
19679 1 105.829 18.4417 0.593366
19680 1 104.066 19.848 1.64807
19682 1 107.591 19.848 1.64807
19684 1 109.354 18.4417 0.593365
19685 1 111.117 19.848 1.64807
19687 1 112.88 18.4417 0.593368
19688 1 114.642 19.8479 1.6481
19690 1 116.405 18.4416 0.593363
19691 1 118.168 19.8484 1.64771
19692 1 119.929 18.444 0.593362
19694 1 123.464 18.4298 0.613338
19695 1 121.696 19.8477 1.65469
19698 1 125.19 19.9022 1.65399
197 1 1.50159 20.9051 1.97647
19844 1 -0.224363 22.7074 2.02742
10302 1 1.50159 22.6373 0.239376
198 1 3.26951 22.6642 1.99414
199 1 5.03621 20.9045 2.00099
10304 1 3.28399 20.9027 0.241787
10305 1 5.03621 22.6618 0.239965
200 1 6.79773 22.6606 2.00016
10308 1 6.79733 20.9027 0.241787
201 1 8.56031 20.9026 1.99955
202 1 10.3232 22.6604 1.99958
10310 1 8.56031 22.6604 0.241884
10311 1 10.3232 20.9027 0.241786
203 1 12.0859 20.9027 1.99963
204 1 13.8487 22.6605 1.99963
10314 1 12.0859 22.6605 0.241778
10315 1 13.8487 20.9027 0.241786
205 1 15.6115 20.9026 1.99962
10319 1 15.6115 22.6605 0.241786
206 1 17.3742 22.6605 1.99962
10318 1 17.3742 20.9027 0.241785
207 1 19.137 20.9027 1.99962
10322 1 19.137 22.6605 0.241785
208 1 20.8997 22.6605 1.99962
209 1 22.6625 20.9026 1.99962
10324 1 20.8997 20.9026 0.241785
10325 1 22.6625 22.6605 0.241785
210 1 24.4253 22.6605 1.99962
211 1 26.188 20.9027 1.99962
10328 1 26.188 22.6605 0.241785
10329 1 24.4253 20.9026 0.241785
212 1 27.9508 22.6605 1.99962
10332 1 27.9508 20.9027 0.241784
213 1 29.7135 20.9027 1.99962
214 1 31.4763 22.6605 1.99962
10334 1 31.4763 20.9027 0.241784
10335 1 29.7135 22.6605 0.241784
215 1 33.2391 20.9027 1.99962
216 1 35.0018 22.6605 1.99962
10338 1 33.2391 22.6605 0.241784
10339 1 35.0018 20.9027 0.241784
217 1 36.7646 20.9027 1.99962
10342 1 36.7646 22.6605 0.241784
218 1 38.5274 22.6605 1.99962
219 1 40.2901 20.9027 1.99962
10344 1 38.5274 20.9027 0.241784
10345 1 40.2901 22.6605 0.241784
220 1 42.0529 22.6605 1.99962
221 1 43.8156 20.9027 1.99962
10348 1 42.0529 20.9027 0.241784
10349 1 43.8156 22.6605 0.241784
222 1 45.5784 22.6605 1.99962
10352 1 45.5784 20.9027 0.241784
223 1 47.3412 20.9027 1.99962
224 1 49.1039 22.6605 1.99963
10354 1 49.1039 20.9027 0.241784
10355 1 47.3412 22.6605 0.241784
225 1 50.8667 20.9027 1.99962
226 1 52.6294 22.6604 1.99957
10358 1 50.8667 22.6605 0.241776
10359 1 52.6294 20.9027 0.241784
227 1 54.3923 20.9026 1.99955
10362 1 54.3923 22.6604 0.241882
228 1 56.1549 22.6606 2.00016
229 1 57.9164 20.9045 2.00099
10364 1 57.9164 22.6618 0.239962
10365 1 56.1553 20.9027 0.241785
230 1 59.6831 22.6642 1.99413
231 1 61.451 20.9051 1.97647
10368 1 59.6686 20.9027 0.241785
10369 1 61.451 22.6373 0.239374
19699 1 63.3862 20.9027 0.241787
19771 1 63.177 22.7074 2.02742
19701 1 65.3142 22.3148 1.24228
19702 1 67.0876 20.9027 0.241795
20324 1 67.0401 21.2742 2.71473
19705 1 70.5681 20.9027 0.241796
19707 1 68.808 22.3155 1.29682
20325 1 70.5747 21.2542 2.70049
19709 1 72.3363 22.3085 1.29609
19711 1 74.0993 20.9027 0.241796
19713 1 75.8617 22.3089 1.29654
20328 1 74.0988 21.2542 2.70289
19715 1 77.6244 20.9027 0.241796
19717 1 79.3872 22.3089 1.2965
20330 1 77.6245 21.2542 2.70276
19718 1 81.15 20.9027 0.241797
20332 1 81.15 21.2542 2.70277
19721 1 84.6755 20.9027 0.241797
19723 1 82.9127 22.3089 1.2965
20333 1 84.6755 21.2542 2.70277
19725 1 88.201 20.9027 0.241798
19727 1 86.4383 22.3089 1.2965
20335 1 88.201 21.2542 2.70277
19729 1 89.9638 22.3089 1.2965
19731 1 91.7265 20.9027 0.241798
19733 1 93.4893 22.3089 1.2965
20338 1 91.7265 21.2542 2.70277
19735 1 95.2521 20.9027 0.241798
19737 1 97.0148 22.3089 1.2965
20340 1 95.2521 21.2542 2.70277
19738 1 98.7776 20.9027 0.241798
20342 1 98.7776 21.2542 2.70277
19741 1 102.303 20.9027 0.241798
19743 1 100.54 22.3089 1.2965
20343 1 102.303 21.2542 2.70277
19745 1 105.829 20.9027 0.241798
19747 1 104.066 22.3089 1.2965
20345 1 105.829 21.2542 2.70277
19749 1 107.591 22.3089 1.2965
19751 1 109.354 20.9027 0.241798
20348 1 109.354 21.2542 2.70277
19753 1 111.117 22.3089 1.2965
19755 1 112.88 20.9027 0.241797
19757 1 114.642 22.3089 1.29654
20350 1 112.88 21.2542 2.70276
19759 1 116.405 20.9027 0.241797
19761 1 118.168 22.3085 1.29609
20352 1 116.405 21.2542 2.70289
19762 1 119.936 20.9027 0.241797
20354 1 119.929 21.2542 2.70049
19765 1 123.417 20.9027 0.241797
19767 1 121.696 22.3155 1.29682
20355 1 123.464 21.2742 2.71473
19769 1 127.118 20.9027 0.241789
19770 1 125.19 22.3148 1.24228
232 1 1.50159 24.4414 2.00204
19149 1 -0.224366 24.3713 0.213996
10372 1 1.50159 26.1737 0.264943
233 1 5.03621 24.4169 2.00145
234 1 3.28399 26.1761 1.99962
10375 1 5.03621 26.1743 0.240418
10376 1 3.26951 24.4145 0.247276
235 1 6.79733 26.1761 1.99962
10379 1 6.79773 24.4182 0.241252
236 1 8.56031 24.4183 1.99953
237 1 10.3232 26.1761 1.99962
10381 1 10.3232 24.4183 0.241834
10382 1 8.56031 26.1762 0.241857
238 1 12.0859 24.4183 1.99963
239 1 13.8487 26.1761 1.99962
10385 1 13.8487 24.4183 0.241782
10386 1 12.0859 26.1761 0.241784
240 1 15.6115 24.4183 1.99962
10390 1 15.6115 26.1761 0.241785
10389 1 17.3742 24.4183 0.241786
241 1 17.3742 26.1761 1.99962
242 1 19.137 24.4183 1.99962
10393 1 19.137 26.1761 0.241785
243 1 22.6625 24.4183 1.99962
10395 1 20.8997 24.4183 0.241785
244 1 20.8997 26.1761 1.99962
10396 1 22.6625 26.1761 0.241785
245 1 26.188 24.4183 1.99962
10399 1 24.4253 24.4183 0.241785
10400 1 26.188 26.1761 0.241785
246 1 24.4253 26.1761 1.99962
247 1 27.9508 26.1761 1.99962
10403 1 27.9508 24.4183 0.241784
248 1 29.7135 24.4183 1.99962
249 1 31.4763 26.1761 1.99962
10405 1 31.4763 24.4183 0.241784
10406 1 29.7135 26.1761 0.241784
250 1 33.2391 24.4183 1.99962
251 1 35.0018 26.1761 1.99962
10409 1 35.0018 24.4183 0.241784
10410 1 33.2391 26.1761 0.241784
252 1 36.7646 24.4183 1.99962
10413 1 36.7646 26.1761 0.241784
253 1 40.2901 24.4183 1.99962
10415 1 38.5274 24.4183 0.241784
254 1 38.5274 26.1761 1.99962
10416 1 40.2901 26.1761 0.241784
255 1 43.8156 24.4183 1.99962
10419 1 42.0529 24.4183 0.241784
10420 1 43.8156 26.1761 0.241784
256 1 42.0529 26.1761 1.99962
257 1 45.5784 26.1761 1.99962
10423 1 45.5784 24.4183 0.241784
258 1 47.3412 24.4183 1.99962
259 1 49.1039 26.1761 1.99962
10425 1 49.1039 24.4183 0.24178
10426 1 47.3412 26.1761 0.241784
260 1 50.8667 24.4183 1.99963
261 1 52.6294 26.1761 1.99962
10429 1 52.6294 24.4183 0.241832
10430 1 50.8667 26.1761 0.241782
262 1 54.3923 24.4183 1.99952
10433 1 54.3923 26.1762 0.241855
263 1 57.9164 24.4169 2.00145
264 1 56.1553 26.1761 1.99962
10435 1 56.1549 24.4182 0.24125
10436 1 57.9164 26.1743 0.240415
265 1 61.451 24.4414 2.00203
266 1 59.6686 26.1761 1.99962
10439 1 61.451 26.1737 0.264941
10440 1 59.6831 24.4145 0.247274
19772 1 63.3862 26.1761 1.99962
19113 1 63.177 24.3713 0.213994
19114 1 65.3142 24.7639 0.999145
19775 1 67.0876 26.1761 1.99963
19776 1 67.0401 23.7032 2.37117
19117 1 68.808 24.7632 0.944612
19778 1 70.5681 26.1761 1.99963
19780 1 70.5747 23.7174 2.3512
19118 1 72.3363 24.7702 0.945343
19120 1 75.8617 24.7698 0.944894
19783 1 74.0993 26.1761 1.99963
19785 1 74.0988 23.715 2.3512
19122 1 79.3872 24.7698 0.944935
19787 1 77.6244 26.1761 1.99963
19789 1 77.6245 23.7152 2.3512
19791 1 81.15 26.1761 1.99963
19792 1 81.15 23.7152 2.3512
19125 1 82.9127 24.7698 0.944932
19794 1 84.6755 26.1761 1.99963
19796 1 84.6755 23.7152 2.3512
19127 1 86.4383 24.7698 0.944932
19798 1 88.201 26.1761 1.99963
19800 1 88.201 23.7152 2.3512
19128 1 89.9638 24.7698 0.944933
19130 1 93.4893 24.7698 0.944933
19803 1 91.7265 26.1761 1.99964
19805 1 91.7265 23.7152 2.3512
19132 1 97.0148 24.7698 0.944933