ITEM: TIMESTEP
5212
ITEM: NUMBER OF ATOMS
3840
ITEM: BOX BOUNDS pp pp pp
-1.9131019273454059e-01 1.3758595019273449e+02
-2.2684780573008458e-02 3.4371344780573025e+01
1.4495450678567562e-02 1.6278504549321426e+01
ITEM: ATOMS id type x y z
1 1 1.54805 1.31456 1.34457
2 1 5.92864 1.31669 2.65969
3 1 10.2181 1.3067 1.30809
4 1 14.5104 1.30659 2.66267
5 1 18.8049 1.3075 1.30778
6 1 23.0997 1.30838 2.66273
7 1 27.3943 1.30921 1.30781
8 1 31.689 1.31005 2.66273
9 1 35.9837 1.31088 1.30781
10 1 40.2783 1.31171 2.66273
11 1 44.573 1.31256 1.3078
12 1 48.8676 1.31341 2.66273
13 1 53.1618 1.31394 1.30789
14 1 57.4552 1.31275 2.66089
15 1 61.7768 1.32487 1.29381
1753 1 66.1465 1.2429 2.63805
1754 1 68.7844 0.186367 0.0495315
1755 1 69.7438 1.31857 1.90076
1756 1 73.9689 1.31619 0.537273
1757 1 78.2451 1.31648 1.89563
1758 1 82.5393 1.31456 0.541151
1759 1 86.8347 1.31335 1.89635
1760 1 91.1294 1.31254 0.541445
1761 1 95.424 1.31171 1.89636
1762 1 99.7187 1.31088 0.541439
1763 1 104.013 1.31005 1.89636
1764 1 108.308 1.30921 0.541439
1765 1 112.603 1.30838 1.89636
1766 1 116.897 1.30759 0.541452
1767 1 121.192 1.30691 1.89623
1768 1 125.489 1.3044 0.540244
1769 1 129.788 1.29801 1.90104
1770 1 134.011 1.27736 0.598574
16 1 0.667258 3.09756 2.63805
17 1 -0.0767188 4.87313 1.24013
18 1 4.19266 4.73474 2.6547
19 1 5.0369 3.0156 1.29381
20 1 8.49115 4.74249 1.30537
21 1 9.35854 3.02771 2.66089
22 1 13.6519 3.02653 1.30789
23 1 12.7928 4.74617 2.66267
24 1 17.0873 4.7467 1.30787
25 1 17.9461 3.02706 2.66273
26 1 21.3818 4.74745 2.66273
27 1 22.2407 3.0279 1.3078
28 1 25.6765 4.74828 1.30781
29 1 26.5354 3.02875 2.66273
30 1 30.8301 3.02958 1.30781
31 1 29.9711 4.74912 2.66273
32 1 34.2658 4.74995 1.30781
33 1 35.1247 3.03042 2.66273
34 1 39.4194 3.03125 1.30781
35 1 38.5604 4.75078 2.66273
36 1 42.8551 4.75161 1.30781
37 1 43.714 3.03208 2.66273
38 1 48.0088 3.03296 1.30778
39 1 47.1498 4.75244 2.66272
40 1 51.4447 4.75347 1.3077
41 1 52.3033 3.03387 2.66267
42 1 56.5956 3.03376 1.30809
43 1 55.7394 4.75478 2.66315
44 1 60.024 4.75208 1.31442
45 1 60.8851 3.02377 2.65969
1771 1 64.2697 4.70196 2.67739
1772 1 66.918 4.48562 0.443966
1773 1 65.2657 3.0259 1.34457
1774 1 70.5798 3.06311 0.598574
1775 1 71.3498 4.79711 1.93431
1776 1 74.8026 3.04245 1.90104
1777 1 75.657 4.75935 0.542045
1778 1 79.1016 3.03606 0.540244
1779 1 79.9637 4.75315 1.89632
1780 1 83.399 3.03356 1.89623
1781 1 84.2582 4.75315 0.541514
1782 1 87.6937 3.03288 0.541452
1783 1 88.5526 4.75246 1.89635
1784 1 91.9883 3.03208 1.89636
1785 1 92.8472 4.75162 0.541436
1786 1 96.283 3.03125 0.541439
1787 1 97.1419 4.75078 1.89636
1788 1 100.578 3.03042 1.89636
1789 1 101.437 4.74995 0.541439
1790 1 104.872 3.02958 0.541439
1791 1 105.731 4.74912 1.89636
1792 1 109.167 3.02875 1.89636
1793 1 110.026 4.74829 0.54144
1794 1 113.462 3.02793 0.541445
1795 1 114.321 4.74745 1.89636
1796 1 117.756 3.02711 1.89635
1797 1 118.615 4.74653 0.541409
1798 1 122.052 3.0259 0.541151
1799 1 122.91 4.74544 1.89649
1800 1 126.346 3.02399 1.89563
1801 1 127.201 4.74673 0.542018
1802 1 130.622 3.02428 0.537273
1803 1 131.466 4.76361 1.87047
1804 1 134.847 3.02189 1.90076
1805 1 135.807 4.1541 0.0495316
46 1 3.35826 6.47699 1.30778
47 1 7.63789 6.46048 2.66555
48 1 11.9322 6.46468 1.3077
49 1 16.2282 6.46623 2.66274
50 1 20.5229 6.467 1.30782
51 1 24.8175 6.46782 2.66273
52 1 29.1122 6.46865 1.30781
53 1 33.4069 6.46948 2.66273
54 1 37.7015 6.47032 1.30781
55 1 41.9962 6.47115 2.66273
56 1 46.2908 6.47197 1.30782
57 1 50.5855 6.47274 2.66274
58 1 54.8815 6.47429 1.3077
59 1 59.1758 6.47849 2.66555
1806 1 63.4555 6.46198 1.30778
1807 1 67.4656 6.00094 2.22778
1808 1 72.1795 6.49414 0.534417
1809 1 76.532 6.47004 1.89632
1810 1 80.8234 6.4731 0.542066
1811 1 85.1169 6.47288 1.89639
1812 1 89.4115 6.47201 0.541428
1813 1 93.7062 6.47115 1.89636
1814 1 98.0008 6.47032 0.541439
1815 1 102.295 6.46948 1.89636
1816 1 106.59 6.46865 0.541439
1817 1 110.885 6.46782 1.89636
1818 1 115.179 6.46696 0.541428
1819 1 119.474 6.46609 1.89639
1820 1 123.768 6.46587 0.542066
1821 1 128.059 6.46893 1.89632
1822 1 132.411 6.44483 0.534417
1823 1 137.125 6.93803 2.22778
60 1 -0.10425 8.45335 0.443966
61 1 2.54403 8.23701 2.67739
62 1 6.7897 8.18689 1.31442
63 1 11.0743 8.18419 2.66315
64 1 15.369 8.1855 1.3077
65 1 19.6639 8.18653 2.66272
66 1 23.9586 8.18736 1.30781
67 1 28.2533 8.18819 2.66273
68 1 32.5479 8.18902 1.30781
69 1 36.8426 8.18985 2.66273
70 1 41.1372 8.19069 1.30781
71 1 45.4319 8.19152 2.66273
72 1 49.7264 8.19227 1.30787
73 1 54.021 8.1928 2.66267
74 1 58.3226 8.19648 1.30537
1824 1 62.6211 8.20423 2.6547
1825 1 66.8904 8.06584 1.24013
1826 1 68.7844 8.78487 0.0495315
1827 1 73.125 8.17536 1.87047
1828 1 77.3901 8.19224 0.542018
1829 1 81.6812 8.19353 1.89649
1830 1 85.9756 8.19244 0.541409
1831 1 90.2704 8.19152 1.89636
1832 1 94.5651 8.19068 0.54144
1833 1 98.8598 8.18985 1.89636
1834 1 103.154 8.18902 0.541439
1835 1 107.449 8.18819 1.89636
1836 1 111.744 8.18735 0.541436
1837 1 116.038 8.18651 1.89635
1838 1 120.333 8.18582 0.541515
1839 1 124.627 8.18582 1.89632
1840 1 128.934 8.17962 0.542045
1841 1 133.241 8.14186 1.93431
75 1 1.54805 9.91307 1.34457
76 1 0.667258 11.6961 2.63805
77 1 5.0369 11.6141 1.29381
78 1 5.92864 9.9152 2.65969
79 1 9.35854 11.6262 2.66089
80 1 10.2181 9.90521 1.30809
81 1 13.6519 11.625 1.30789
82 1 14.5104 9.9051 2.66267
83 1 18.8049 9.90601 1.30778
84 1 17.9461 11.6256 2.66273
85 1 22.2407 11.6264 1.3078
86 1 23.0997 9.90689 2.66273
87 1 27.3943 9.90772 1.30781
88 1 26.5354 11.6273 2.66273
89 1 30.8301 11.6281 1.30781
90 1 31.689 9.90855 2.66273
91 1 35.9837 9.90939 1.30781
92 1 35.1247 11.6289 2.66273
93 1 39.4194 11.6298 1.30781
94 1 40.2783 9.91022 2.66273
95 1 44.573 9.91107 1.3078
96 1 43.714 11.6306 2.66273
97 1 48.0088 11.6315 1.30778
98 1 48.8676 9.91191 2.66273
99 1 52.3033 11.6324 2.66267
100 1 53.1618 9.91244 1.30789
101 1 56.5956 11.6323 1.30809
102 1 57.4552 9.91126 2.66089
103 1 60.8851 11.6223 2.65969
104 1 61.7768 9.92337 1.29381
1842 1 65.2657 11.6244 1.34457
1843 1 66.1465 9.84141 2.63805
1844 1 69.7438 9.91708 1.90076
1845 1 70.5798 11.6616 0.598574
1846 1 73.9689 9.91469 0.537273
1847 1 74.8026 11.641 1.90104
1848 1 78.2451 9.91498 1.89563
1849 1 79.1016 11.6346 0.540244
1850 1 82.5393 9.91307 0.541151
1851 1 83.399 11.6321 1.89623
1852 1 86.8347 9.91186 1.89635
1853 1 87.6937 11.6314 0.541452
1854 1 91.1294 9.91104 0.541445
1855 1 91.9883 11.6306 1.89636
1856 1 95.424 9.91022 1.89636
1857 1 96.283 11.6298 0.541439
1858 1 99.7187 9.90939 0.541439
1859 1 100.578 11.6289 1.89636
1860 1 104.013 9.90855 1.89636
1861 1 104.872 11.6281 0.541439
1862 1 108.308 9.90772 0.541439
1863 1 109.167 11.6273 1.89636
1864 1 112.603 9.90689 1.89636
1865 1 113.462 11.6264 0.541445
1866 1 116.897 9.90609 0.541452
1867 1 117.756 11.6256 1.89635
1868 1 121.192 9.90541 1.89623
1869 1 122.052 11.6244 0.541151
1870 1 125.489 9.90291 0.540244
1871 1 126.346 11.6225 1.89563
1872 1 129.788 9.89652 1.90104
1873 1 130.622 11.6228 0.537273
1874 1 134.011 9.87586 0.598574
1875 1 134.847 11.6204 1.90076
105 1 -0.0767188 13.4716 1.24013
106 1 4.19266 13.3332 2.6547
107 1 8.49115 13.341 1.30537
108 1 12.7928 13.3447 2.66267
109 1 17.0873 13.3452 1.30787
110 1 21.3818 13.346 2.66273
111 1 25.6765 13.3468 1.30781
112 1 29.9711 13.3476 2.66273
113 1 34.2658 13.3485 1.30781
114 1 38.5604 13.3493 2.66273
115 1 42.8551 13.3501 1.30781
116 1 47.1498 13.3509 2.66272
117 1 51.4447 13.352 1.3077
118 1 55.7394 13.3533 2.66315
119 1 60.024 13.3506 1.31442
1876 1 64.2697 13.3005 2.67739
1877 1 66.918 13.0841 0.443966
1878 1 67.4656 14.5994 2.22778
1879 1 71.3498 13.3956 1.93431
1880 1 75.657 13.3579 0.542045
1881 1 79.9637 13.3517 1.89632
1882 1 84.2582 13.3517 0.541514
1883 1 88.5526 13.351 1.89635
1884 1 92.8472 13.3501 0.541436
1885 1 97.1419 13.3493 1.89636
1886 1 101.437 13.3485 0.541439
1887 1 105.731 13.3476 1.89636
1888 1 110.026 13.3468 0.54144
1889 1 114.321 13.346 1.89636
1890 1 118.615 13.345 0.541409
1891 1 122.91 13.344 1.89649
1892 1 127.201 13.3452 0.542018
1893 1 131.466 13.3621 1.87047
1894 1 135.807 12.7526 0.0495316
120 1 -0.10425 17.0519 0.443966
121 1 3.35826 15.0755 1.30778
122 1 2.54403 16.8355 2.67739
123 1 6.7897 16.7854 1.31442
124 1 7.63789 15.059 2.66555
125 1 11.0743 16.7827 2.66315
126 1 11.9322 15.0632 1.3077
127 1 15.369 16.784 1.3077
128 1 16.2282 15.0647 2.66274
129 1 20.5229 15.0655 1.30782
130 1 19.6639 16.785 2.66272
131 1 23.9586 16.7859 1.30781
132 1 24.8175 15.0663 2.66273
133 1 28.2533 16.7867 2.66273
134 1 29.1122 15.0672 1.30781
135 1 32.5479 16.7875 1.30781
136 1 33.4069 15.068 2.66273
137 1 37.7015 15.0688 1.30781
138 1 36.8426 16.7884 2.66273
139 1 41.1372 16.7892 1.30781
140 1 41.9962 15.0697 2.66273
141 1 45.4319 16.79 2.66273
142 1 46.2908 15.0705 1.30782
143 1 49.7264 16.7908 1.30787
144 1 50.5855 15.0712 2.66274
145 1 54.8815 15.0728 1.3077
146 1 54.021 16.7913 2.66267
147 1 58.3226 16.795 1.30537
148 1 59.1758 15.077 2.66555
1895 1 62.6211 16.8027 2.6547
1896 1 63.4555 15.0605 1.30778
1897 1 66.8904 16.6643 1.24013
1898 1 72.1795 15.0926 0.534417
1899 1 73.125 16.7739 1.87047
1900 1 76.532 15.0686 1.89632
1901 1 77.3901 16.7907 0.542018
1902 1 80.8234 15.0716 0.542066
1903 1 81.6812 16.792 1.89649
1904 1 85.1169 15.0714 1.89639
1905 1 85.9756 16.7909 0.541409
1906 1 89.4115 15.0705 0.541428
1907 1 90.2704 16.79 1.89636
1908 1 93.7062 15.0697 1.89636
1909 1 94.5651 16.7892 0.54144
1910 1 98.0008 15.0688 0.541439
1911 1 98.8598 16.7884 1.89636
1912 1 102.295 15.068 1.89636
1913 1 103.154 16.7875 0.541439
1914 1 106.59 15.0672 0.541439
1915 1 107.449 16.7867 1.89636
1916 1 110.885 15.0663 1.89636
1917 1 111.744 16.7859 0.541436
1918 1 115.179 15.0655 0.541428
1919 1 116.038 16.785 1.89635
1920 1 119.474 15.0646 1.89639
1921 1 120.333 16.7843 0.541515
1922 1 123.768 15.0644 0.542066
1923 1 124.627 16.7843 1.89632
1924 1 128.059 15.0674 1.89632
1925 1 128.934 16.7781 0.542045
1926 1 132.411 15.0433 0.534417
1927 1 133.241 16.7404 1.93431
1928 1 137.125 15.5365 2.22778
149 1 1.54805 18.5116 1.34457
150 1 5.92864 18.5137 2.65969
151 1 10.2181 18.5037 1.30809
152 1 14.5104 18.5036 2.66267
153 1 18.8049 18.5045 1.30778
154 1 23.0997 18.5054 2.66273
155 1 27.3943 18.5062 1.30781
156 1 31.689 18.5071 2.66273
157 1 35.9837 18.5079 1.30781
158 1 40.2783 18.5087 2.66273
159 1 44.573 18.5096 1.3078
160 1 48.8676 18.5104 2.66273
161 1 53.1618 18.511 1.30789
162 1 57.4552 18.5098 2.66089
163 1 61.7768 18.5219 1.29381
1929 1 66.1465 18.4399 2.63805
1930 1 68.7844 17.3834 0.0495315
1931 1 69.7438 18.5156 1.90076
1932 1 73.9689 18.5132 0.537273
1933 1 78.2451 18.5135 1.89563
1934 1 82.5393 18.5116 0.541151
1935 1 86.8347 18.5104 1.89635
1936 1 91.1294 18.5096 0.541445
1937 1 95.424 18.5087 1.89636
1938 1 99.7187 18.5079 0.541439
1939 1 104.013 18.5071 1.89636
1940 1 108.308 18.5062 0.541439
1941 1 112.603 18.5054 1.89636
1942 1 116.897 18.5046 0.541452
1943 1 121.192 18.5039 1.89623
1944 1 125.489 18.5014 0.540244
1945 1 129.788 18.495 1.90104
1946 1 134.011 18.4744 0.598574
164 1 0.667258 20.2946 2.63805
165 1 -0.0767188 22.0701 1.24013
166 1 4.19266 21.9318 2.6547
167 1 5.0369 20.2126 1.29381
168 1 8.49115 21.9395 1.30537
169 1 9.35854 20.2247 2.66089
170 1 13.6519 20.2235 1.30789
171 1 12.7928 21.9432 2.66267
172 1 17.0873 21.9437 1.30787
173 1 17.9461 20.2241 2.66273
174 1 21.3818 21.9445 2.66273
175 1 22.2407 20.2249 1.3078
176 1 25.6765 21.9453 1.30781
177 1 26.5354 20.2258 2.66273
178 1 30.8301 20.2266 1.30781
179 1 29.9711 21.9461 2.66273
180 1 34.2658 21.947 1.30781
181 1 35.1247 20.2274 2.66273
182 1 39.4194 20.2283 1.30781
183 1 38.5604 21.9478 2.66273
184 1 42.8551 21.9486 1.30781
185 1 43.714 20.2291 2.66273
186 1 48.0088 20.23 1.30778
187 1 47.1498 21.9495 2.66272
188 1 51.4447 21.9505 1.3077
189 1 52.3033 20.2309 2.66267
190 1 56.5956 20.2308 1.30809
191 1 55.7394 21.9518 2.66315
192 1 60.024 21.9491 1.31442
193 1 60.8851 20.2208 2.65969
1947 1 64.2697 21.899 2.67739
1948 1 66.918 21.6826 0.443966
1949 1 65.2657 20.2229 1.34457
1950 1 70.5798 20.2601 0.598574
1951 1 71.3498 21.9941 1.93431
1952 1 74.8026 20.2395 1.90104
1953 1 75.657 21.9564 0.542045
1954 1 79.1016 20.2331 0.540244
1955 1 79.9637 21.9502 1.89632
1956 1 83.399 20.2306 1.89623
1957 1 84.2582 21.9502 0.541514
1958 1 87.6937 20.2299 0.541452
1959 1 88.5526 21.9495 1.89635
1960 1 91.9883 20.2291 1.89636
1961 1 92.8472 21.9486 0.541436
1962 1 96.283 20.2283 0.541439
1963 1 97.1419 21.9478 1.89636
1964 1 100.578 20.2274 1.89636
1965 1 101.437 21.947 0.541439
1966 1 104.872 20.2266 0.541439
1967 1 105.731 21.9461 1.89636
1968 1 109.167 20.2258 1.89636
1969 1 110.026 21.9453 0.54144
1970 1 113.462 20.2249 0.541445
1971 1 114.321 21.9445 1.89636
1972 1 117.756 20.2241 1.89635
1973 1 118.615 21.9435 0.541409
1974 1 122.052 20.2229 0.541151
1975 1 122.91 21.9425 1.89649
1976 1 126.346 20.221 1.89563
1977 1 127.201 21.9437 0.542018
1978 1 130.622 20.2213 0.537273
1979 1 131.466 21.9606 1.87047
1980 1 134.847 20.2189 1.90076
1981 1 135.807 21.3511 0.0495316
194 1 3.35826 23.674 1.30778
195 1 7.63789 23.6575 2.66555
196 1 11.9322 23.6617 1.3077
197 1 16.2282 23.6632 2.66274
198 1 20.5229 23.664 1.30782
199 1 24.8175 23.6648 2.66273
200 1 29.1122 23.6657 1.30781
201 1 33.4069 23.6665 2.66273
202 1 37.7015 23.6673 1.30781
203 1 41.9962 23.6682 2.66273
204 1 46.2908 23.669 1.30782
205 1 50.5855 23.6698 2.66274
206 1 54.8815 23.6713 1.3077
207 1 59.1758 23.6755 2.66555
1982 1 63.4555 23.659 1.30778
1983 1 67.4656 23.198 2.22778
1984 1 72.1795 23.6912 0.534417
1985 1 76.532 23.6671 1.89632
1986 1 80.8234 23.6701 0.542066
1987 1 85.1169 23.6699 1.89639
1988 1 89.4115 23.669 0.541428
1989 1 93.7062 23.6682 1.89636
1990 1 98.0008 23.6673 0.541439
1991 1 102.295 23.6665 1.89636
1992 1 106.59 23.6657 0.541439
1993 1 110.885 23.6648 1.89636
1994 1 115.179 23.664 0.541428
1995 1 119.474 23.6631 1.89639
1996 1 123.768 23.6629 0.542066
1997 1 128.059 23.6659 1.89632
1998 1 132.411 23.6418 0.534417
1999 1 137.125 24.135 2.22778
208 1 -0.10425 25.6504 0.443966
209 1 2.54403 25.434 2.67739
210 1 6.7897 25.3839 1.31442
211 1 11.0743 25.3812 2.66315
212 1 15.369 25.3825 1.3077
213 1 19.6639 25.3835 2.66272
214 1 23.9586 25.3844 1.30781
215 1 28.2533 25.3852 2.66273
216 1 32.5479 25.386 1.30781
217 1 36.8426 25.3869 2.66273
218 1 41.1372 25.3877 1.30781
219 1 45.4319 25.3885 2.66273
220 1 49.7264 25.3893 1.30787
221 1 54.021 25.3898 2.66267
222 1 58.3226 25.3935 1.30537
2000 1 62.6211 25.4012 2.6547
2001 1 66.8904 25.2629 1.24013
2002 1 68.7844 25.9819 0.0495315
2003 1 73.125 25.3724 1.87047
2004 1 77.3901 25.3893 0.542018
2005 1 81.6812 25.3905 1.89649
2006 1 85.9756 25.3895 0.541409
2007 1 90.2704 25.3885 1.89636
2008 1 94.5651 25.3877 0.54144
2009 1 98.8598 25.3869 1.89636
2010 1 103.154 25.386 0.541439
2011 1 107.449 25.3852 1.89636
2012 1 111.744 25.3844 0.541436
2013 1 116.038 25.3835 1.89635
2014 1 120.333 25.3828 0.541515
2015 1 124.627 25.3828 1.89632
2016 1 128.934 25.3766 0.542045
2017 1 133.241 25.3389 1.93431
223 1 1.54805 27.1101 1.34457
224 1 0.667258 28.8931 2.63805
225 1 5.0369 28.8111 1.29381
226 1 5.92864 27.1122 2.65969
227 1 9.35854 28.8232 2.66089
228 1 10.2181 27.1022 1.30809
229 1 13.6519 28.822 1.30789
230 1 14.5104 27.1021 2.66267
231 1 18.8049 27.103 1.30778
232 1 17.9461 28.8226 2.66273
233 1 22.2407 28.8234 1.3078
234 1 23.0997 27.1039 2.66273
235 1 27.3943 27.1047 1.30781
236 1 26.5354 28.8243 2.66273
237 1 30.8301 28.8251 1.30781
238 1 31.689 27.1056 2.66273
239 1 35.9837 27.1064 1.30781
240 1 35.1247 28.8259 2.66273
241 1 39.4194 28.8268 1.30781
242 1 40.2783 27.1072 2.66273
243 1 44.573 27.1081 1.3078
244 1 43.714 28.8276 2.66273
245 1 48.0088 28.8285 1.30778
246 1 48.8676 27.1089 2.66273
247 1 52.3033 28.8294 2.66267
248 1 53.1618 27.1095 1.30789
249 1 56.5956 28.8293 1.30809
250 1 57.4552 27.1083 2.66089
251 1 61.7768 27.1204 1.29381
252 1 60.8851 28.8193 2.65969
2018 1 65.2657 28.8214 1.34457
2019 1 66.1465 27.0384 2.63805
2020 1 69.7438 27.1141 1.90076
2021 1 70.5798 28.8586 0.598574
2022 1 73.9689 27.1117 0.537273
2023 1 74.8026 28.838 1.90104
2024 1 78.2451 27.112 1.89563
2025 1 79.1016 28.8316 0.540244
2026 1 82.5393 27.1101 0.541151
2027 1 83.399 28.8291 1.89623
2028 1 86.8347 27.1089 1.89635
2029 1 87.6937 28.8284 0.541452
2030 1 91.1294 27.1081 0.541445
2031 1 91.9883 28.8276 1.89636
2032 1 95.424 27.1072 1.89636
2033 1 96.283 28.8268 0.541439
2034 1 99.7187 27.1064 0.541439
2035 1 100.578 28.8259 1.89636
2036 1 104.013 27.1056 1.89636
2037 1 104.872 28.8251 0.541439
2038 1 108.308 27.1047 0.541439
2039 1 109.167 28.8243 1.89636
2040 1 112.603 27.1039 1.89636
2041 1 113.462 28.8234 0.541445
2042 1 116.897 27.1031 0.541452
2043 1 117.756 28.8226 1.89635
2044 1 121.192 27.1024 1.89623
2045 1 122.052 28.8214 0.541151
2046 1 125.489 27.0999 0.540244
2047 1 126.346 28.8195 1.89563
2048 1 129.788 27.0935 1.90104
2049 1 130.622 28.8198 0.537273
2050 1 134.011 27.0729 0.598574
2051 1 134.847 28.8174 1.90076
253 1 -0.0767188 30.6687 1.24013
254 1 4.19266 30.5303 2.6547
255 1 8.49115 30.538 1.30537
256 1 12.7928 30.5417 2.66267
257 1 17.0873 30.5422 1.30787
258 1 21.3818 30.543 2.66273
259 1 25.6765 30.5438 1.30781
260 1 29.9711 30.5446 2.66273
261 1 34.2658 30.5455 1.30781
262 1 38.5604 30.5463 2.66273
263 1 42.8551 30.5471 1.30781
264 1 47.1498 30.548 2.66272
265 1 51.4447 30.549 1.3077
266 1 55.7394 30.5503 2.66315
267 1 60.024 30.5476 1.31442
2052 1 64.2697 30.4975 2.67739
2053 1 66.918 30.2811 0.443966
2054 1 67.4656 31.7965 2.22778
2055 1 71.3498 30.5926 1.93431
2056 1 75.657 30.5549 0.542045
2057 1 79.9637 30.5487 1.89632
2058 1 84.2582 30.5487 0.541514
2059 1 88.5526 30.548 1.89635
2060 1 92.8472 30.5471 0.541436
2061 1 97.1419 30.5463 1.89636
2062 1 101.437 30.5455 0.541439
2063 1 105.731 30.5446 1.89636
2064 1 110.026 30.5438 0.54144
2065 1 114.321 30.543 1.89636
2066 1 118.615 30.5421 0.541409
2067 1 122.91 30.541 1.89649
2068 1 127.201 30.5423 0.542018
2069 1 131.466 30.5591 1.87047
2070 1 135.807 29.9496 0.0495316
268 1 -0.10425 34.2489 0.443966
269 1 3.35826 32.2725 1.30778
270 1 2.54403 34.0325 2.67739
271 1 6.7897 33.9824 1.31442
272 1 7.63789 32.256 2.66555
273 1 11.0743 33.9797 2.66315
274 1 11.9322 32.2602 1.3077
275 1 15.369 33.981 1.3077
276 1 16.2282 32.2618 2.66274
277 1 20.5229 32.2625 1.30782
278 1 19.6639 33.9821 2.66272
279 1 23.9586 33.9829 1.30781
280 1 24.8175 32.2633 2.66273
281 1 28.2533 33.9837 2.66273
282 1 29.1122 32.2642 1.30781
283 1 32.5479 33.9845 1.30781
284 1 33.4069 32.265 2.66273
285 1 37.7015 32.2658 1.30781
286 1 36.8426 33.9854 2.66273
287 1 41.1372 33.9862 1.30781
288 1 41.9962 32.2667 2.66273
289 1 45.4319 33.987 2.66273
290 1 46.2908 32.2675 1.30782
291 1 49.7264 33.9878 1.30787
292 1 50.5855 32.2683 2.66274
293 1 54.8815 32.2698 1.3077
294 1 54.021 33.9883 2.66267
295 1 58.3226 33.992 1.30537
296 1 59.1758 32.274 2.66555
2071 1 62.6211 33.9998 2.6547
2072 1 63.4555 32.2575 1.30778
2073 1 66.8904 33.8614 1.24013
2074 1 72.1795 32.2897 0.534417
2075 1 73.125 33.9709 1.87047
2076 1 76.532 32.2656 1.89632
2077 1 77.3901 33.9878 0.542018
2078 1 80.8234 32.2686 0.542066
2079 1 81.6812 33.989 1.89649
2080 1 85.1169 32.2684 1.89639
2081 1 85.9756 33.988 0.541409
2082 1 89.4115 32.2675 0.541428
2083 1 90.2704 33.987 1.89636
2084 1 93.7062 32.2667 1.89636
2085 1 94.5651 33.9862 0.54144
2086 1 98.0008 32.2658 0.541439
2087 1 98.8598 33.9854 1.89636
2088 1 102.295 32.265 1.89636
2089 1 103.154 33.9845 0.541439
2090 1 106.59 32.2642 0.541439
2091 1 107.449 33.9837 1.89636
2092 1 110.885 32.2633 1.89636
2093 1 111.744 33.9829 0.541436
2094 1 115.179 32.2625 0.541428
2095 1 116.038 33.982 1.89635
2096 1 119.474 32.2616 1.89639
2097 1 120.333 33.9813 0.541515
2098 1 123.768 32.2614 0.542066
2099 1 124.627 33.9813 1.89632
2100 1 128.059 32.2644 1.89632
2101 1 128.934 33.9751 0.542045
2102 1 132.411 32.2404 0.534417
2103 1 133.241 33.9374 1.93431
2104 1 137.125 32.7336 2.22778
297 1 4.23637 0.464358 4.04436
298 1 3.29089 2.14558 5.38042
299 1 7.64336 2.16967 4.01851
300 1 8.50149 0.447477 5.37282
301 1 12.7925 0.44619 4.01834
302 1 11.9347 2.16662 5.37277
303 1 16.2282 2.16684 4.01844
304 1 17.087 0.447278 5.37342
305 1 21.3818 0.448201 4.01847
306 1 20.5228 2.16771 5.37341
307 1 24.8175 2.16856 4.01848
308 1 25.6765 0.449032 5.37339
309 1 29.9711 0.449863 4.01848
310 1 29.1122 2.1694 5.37339
311 1 33.4069 2.17023 4.01848
312 1 34.2658 0.450696 5.37339
313 1 37.7015 2.17106 5.37339
314 1 38.5604 0.45153 4.01848
315 1 41.9962 2.1719 4.01848
316 1 42.8551 0.452369 5.3734
317 1 47.1498 0.453205 4.01848
318 1 46.2909 2.17275 5.37341
319 1 50.5855 2.17362 4.01844
320 1 51.4441 0.453892 5.37332
321 1 54.879 2.17384 5.37277
322 1 55.7387 0.453896 4.01851
323 1 59.1704 2.17079 4.01851
324 1 60.0453 0.460099 5.37279
2105 1 64.3525 0.497861 3.98052
2106 1 63.5228 2.19489 5.38042
2107 1 68.2367 1.70168 3.68705
2108 1 71.4327 0.402709 3.23744
2109 1 72.2469 2.16272 4.60705
2110 1 75.6783 0.452821 4.60042
2111 1 76.5265 2.17924 3.24928
2112 1 79.9629 0.45553 3.25168
2113 1 80.8208 2.17504 4.60713
2114 1 84.2576 0.454214 4.60713
2115 1 85.1168 2.17349 3.2521
2116 1 88.5526 0.453183 3.25211
2117 1 89.4115 2.17271 4.60701
2118 1 92.8472 0.452358 4.60702
2119 1 93.7062 2.1719 3.25211
2120 1 97.1419 0.45153 3.25211
2121 1 98.0008 2.17107 4.60703
2122 1 101.437 0.450697 4.60703
2123 1 102.295 2.17023 3.25211
2124 1 105.731 0.449863 3.25211
2125 1 106.59 2.1694 4.60703
2126 1 110.026 0.449027 4.60703
2127 1 110.885 2.16856 3.25211
2128 1 114.321 0.448193 3.25211
2129 1 115.179 2.16775 4.60701
2130 1 118.615 0.447443 4.60696
2131 1 119.474 2.16697 3.2521
2132 1 122.91 0.446913 3.25216
2133 1 123.77 2.16542 4.60713
2134 1 127.211 0.443233 4.60946
2135 1 128.064 2.16122 3.24928
2136 1 131.51 0.435483 3.26014
2137 1 132.344 2.17774 4.60705
2138 1 135.779 0.573879 4.67471
325 1 2.46119 3.8426 3.98052
326 1 6.76842 3.88036 5.37279
327 1 11.075 3.88657 4.01851
328 1 15.3696 3.88657 5.37332
329 1 19.664 3.88726 4.01848
330 1 23.9586 3.88809 5.3734
331 1 28.2533 3.88893 4.01848
332 1 32.5479 3.88977 5.37339
333 1 36.8426 3.8906 4.01848
334 1 41.1372 3.89143 5.37339
335 1 45.4319 3.89226 4.01847
336 1 49.7267 3.89318 5.37342
337 1 54.0212 3.89427 4.01834
338 1 58.3122 3.89299 5.37282
2139 1 62.5773 3.8761 4.04436
2140 1 68.8119 3.76658 4.67471
2141 1 73.0813 3.90498 3.26014
2142 1 77.3798 3.89723 4.60946
2143 1 81.6814 3.89355 3.25216
2144 1 85.9759 3.89302 4.60696
2145 1 90.2705 3.89227 3.25211
2146 1 94.5651 3.89144 4.60703
2147 1 98.8598 3.8906 3.25211
2148 1 103.154 3.88977 4.60703
2149 1 107.449 3.88893 3.25211
2150 1 111.744 3.8881 4.60702
2151 1 116.038 3.88728 3.25211
2152 1 120.333 3.88625 4.60713
2153 1 124.628 3.88493 3.25168
2154 1 128.913 3.88764 4.60042
2155 1 133.158 3.93775 3.23744
2156 1 136.354 2.63878 3.68705
339 1 0.855198 7.32114 4.01408
340 1 1.69118 5.57661 5.31626
341 1 5.91396 5.59726 4.0138
342 1 5.0803 7.32353 5.37756
343 1 9.35646 7.32324 4.0192
344 1 10.213 5.60365 5.37459
345 1 13.6507 7.32516 5.37368
346 1 14.5104 5.60616 4.0186
347 1 18.8051 5.60684 5.37338
348 1 17.9461 7.32637 4.01848
349 1 23.0997 5.60763 4.01848
350 1 22.2408 7.32718 5.37339
351 1 27.3943 5.60847 5.37339
352 1 26.5354 7.328 4.01848
353 1 30.8301 7.32884 5.37339
354 1 31.689 5.6093 4.01848
355 1 35.9837 5.61013 5.37339
356 1 35.1247 7.32967 4.01848
357 1 40.2783 5.61097 4.01848
358 1 39.4194 7.3305 5.37339
359 1 44.573 5.61179 5.37339
360 1 43.714 7.33134 4.01848
361 1 48.0086 7.33213 5.37338
362 1 48.8676 5.6126 4.01848
377 1 52.3033 7.33281 4.0186
363 1 53.163 5.61381 5.37368
364 1 57.4573 5.61573 4.0192
379 1 56.6007 7.33532 5.37459
365 1 61.7334 5.61544 5.37756
382 1 60.8998 7.34171 4.0138
2157 1 65.9585 5.61783 4.01408
2158 1 69.5559 5.54216 3.27679
2159 1 70.4367 7.32516 4.57026
2160 1 73.9255 5.62412 4.62103
2161 1 74.8173 7.32303 3.25515
2162 1 78.2472 5.612 3.25395
2163 1 79.1067 7.33302 4.60675
2164 1 82.5406 5.61319 4.60694
2165 1 83.399 7.33312 3.25216
2166 1 86.8347 5.61266 3.25211
2167 1 87.6936 7.33221 4.60706
2168 1 91.1294 5.61181 4.60703
2169 1 91.9883 7.33133 3.25211
2170 1 95.424 5.61097 3.25211
2171 1 96.283 7.3305 4.60703
2172 1 99.7187 5.61013 4.60703
2173 1 100.578 7.32967 3.25211
2174 1 104.013 5.6093 3.25211
2175 1 104.872 7.32884 4.60703
2176 1 108.308 5.60847 4.60703
2177 1 109.167 7.328 3.25211
2178 1 112.603 5.60764 3.25211
2179 1 113.462 7.32716 4.60703
2180 1 116.897 5.60676 4.60706
2181 1 117.756 7.32631 3.25211
2182 1 121.192 5.60585 3.25216
2183 1 122.05 7.32578 4.60694
2184 1 125.484 5.60595 4.60675
2185 1 126.344 7.32697 3.25395
2186 1 129.774 5.61594 3.25515
2187 1 130.665 7.31485 4.62103
2188 1 134.154 5.61381 4.57026
366 1 4.23637 9.06286 4.04436
367 1 8.50149 9.04598 5.37282
368 1 12.7925 9.0447 4.01834
369 1 17.087 9.04579 5.37342
370 1 21.3818 9.04671 4.01847
371 1 25.6765 9.04754 5.37339
372 1 29.9711 9.04837 4.01848
373 1 34.2658 9.0492 5.37339
374 1 38.5604 9.05004 4.01848
375 1 42.8551 9.05088 5.3734
376 1 47.1498 9.05171 4.01848
378 1 51.4441 9.0524 5.37332
380 1 55.7387 9.0524 4.01851
381 1 60.0453 9.05861 5.37279
2189 1 64.3525 9.09637 3.98052
2190 1 65.1225 7.36236 5.31626
2191 1 71.4327 9.00122 3.23744
2192 1 75.6783 9.05133 4.60042
2193 1 79.9629 9.05404 3.25168
2194 1 84.2576 9.05272 4.60713
2195 1 88.5526 9.05169 3.25211
2196 1 92.8472 9.05087 4.60702
2197 1 97.1419 9.05004 3.25211
2198 1 101.437 9.0492 4.60703
2199 1 105.731 9.04837 3.25211
2200 1 110.026 9.04753 4.60703
2201 1 114.321 9.0467 3.25211
2202 1 118.615 9.04595 4.60696
2203 1 122.91 9.04542 3.25216
2204 1 127.211 9.04174 4.60946
2205 1 131.51 9.03399 3.26014
2206 1 135.035 7.39681 3.27679
2207 1 135.779 9.17239 4.67471
383 1 3.29089 10.7441 5.38042
384 1 7.64336 10.7682 4.01851
385 1 11.9347 10.7651 5.37277
386 1 16.2282 10.7653 4.01844
387 1 20.5228 10.7662 5.37341
388 1 24.8175 10.7671 4.01848
389 1 29.1122 10.7679 5.37339
390 1 33.4069 10.7687 4.01848
391 1 37.7015 10.7696 5.37339
392 1 41.9962 10.7704 4.01848
393 1 46.2909 10.7713 5.37341
394 1 50.5855 10.7721 4.01844
395 1 54.879 10.7724 5.37277
396 1 59.1704 10.7693 4.01851
2208 1 63.5228 10.7934 5.38042
2209 1 68.2367 10.3002 3.68705
2210 1 72.2469 10.7612 4.60705
2211 1 76.5265 10.7777 3.24928
2212 1 80.8208 10.7735 4.60713
2213 1 85.1168 10.772 3.2521
2214 1 89.4115 10.7712 4.60701
2215 1 93.7062 10.7704 3.25211
2216 1 98.0008 10.7696 4.60703
2217 1 102.295 10.7687 3.25211
2218 1 106.59 10.7679 4.60703
2219 1 110.885 10.7671 3.25211
2220 1 115.179 10.7663 4.60701
2221 1 119.474 10.7655 3.2521
2222 1 123.77 10.7639 4.60713
2223 1 128.064 10.7597 3.24928
2224 1 132.344 10.7762 4.60705
2225 1 136.354 11.2373 3.68705
397 1 1.69118 14.1751 5.31626
398 1 2.46119 12.4411 3.98052
399 1 5.91396 14.1958 4.0138
400 1 6.76842 12.4789 5.37279
401 1 11.075 12.4851 4.01851
402 1 10.213 14.2022 5.37459
403 1 14.5104 14.2047 4.0186
404 1 15.3696 12.4851 5.37332
405 1 18.8051 14.2053 5.37338
406 1 19.664 12.4858 4.01848
407 1 23.0997 14.2061 4.01848
408 1 23.9586 12.4866 5.3734
409 1 28.2533 12.4874 4.01848
410 1 27.3943 14.207 5.37339
411 1 31.689 14.2078 4.01848
412 1 32.5479 12.4883 5.37339
413 1 35.9837 14.2086 5.37339
414 1 36.8426 12.4891 4.01848
415 1 40.2783 14.2095 4.01848
416 1 41.1372 12.4899 5.37339
417 1 45.4319 12.4908 4.01847
418 1 44.573 14.2103 5.37339
419 1 48.8676 14.2111 4.01848
420 1 49.7267 12.4917 5.37342
421 1 54.0212 12.4928 4.01834
422 1 53.163 14.2123 5.37368
423 1 57.4573 14.2142 4.0192
424 1 58.3122 12.4915 5.37282
425 1 61.7334 14.2139 5.37756
2226 1 62.5773 12.4746 4.04436
2227 1 65.9585 14.2163 4.01408
2228 1 69.5559 14.1407 3.27679
2229 1 68.8119 12.3651 4.67471
2230 1 73.0813 12.5035 3.26014
2231 1 73.9255 14.2226 4.62103
2232 1 77.3798 12.4957 4.60946
2233 1 78.2472 14.2105 3.25395
2234 1 81.6814 12.4921 3.25216
2235 1 82.5406 14.2117 4.60694
2236 1 85.9759 12.4915 4.60696
2237 1 86.8347 14.2112 3.25211
2238 1 90.2705 12.4908 3.25211
2239 1 91.1294 14.2103 4.60703
2240 1 94.5651 12.4899 4.60703
2241 1 95.424 14.2095 3.25211
2242 1 98.8598 12.4891 3.25211
2243 1 99.7187 14.2086 4.60703
2244 1 103.154 12.4883 4.60703
2245 1 104.013 14.2078 3.25211
2246 1 107.449 12.4874 3.25211
2247 1 108.308 14.207 4.60703
2248 1 111.744 12.4866 4.60702
2249 1 112.603 14.2061 3.25211
2250 1 116.038 12.4858 3.25211
2251 1 116.897 14.2053 4.60706
2252 1 120.333 12.4848 4.60713
2253 1 121.192 14.2044 3.25216
2254 1 124.628 12.4834 3.25168
2255 1 125.484 14.2045 4.60675
2256 1 128.913 12.4861 4.60042
2257 1 129.774 14.2145 3.25515
2258 1 133.158 12.5363 3.23744
2259 1 134.154 14.2123 4.57026
426 1 0.855198 15.9197 4.01408
427 1 5.0803 15.922 5.37756
428 1 9.35646 15.9217 4.0192
429 1 13.6507 15.9237 5.37368
430 1 17.9461 15.9249 4.01848
431 1 22.2408 15.9257 5.37339
432 1 26.5354 15.9265 4.01848
433 1 30.8301 15.9273 5.37339
434 1 35.1247 15.9282 4.01848
435 1 39.4194 15.929 5.37339
436 1 43.714 15.9298 4.01848
437 1 48.0086 15.9306 5.37338
438 1 52.3033 15.9313 4.0186
439 1 56.6007 15.9338 5.37459
440 1 60.8998 15.9402 4.0138
2260 1 65.1225 15.9609 5.31626
2261 1 70.4367 15.9237 4.57026
2262 1 74.8173 15.9215 3.25515
2263 1 79.1067 15.9315 4.60675
2264 1 83.399 15.9316 3.25216
2265 1 87.6936 15.9307 4.60706
2266 1 91.9883 15.9298 3.25211
2267 1 96.283 15.929 4.60703
2268 1 100.578 15.9282 3.25211
2269 1 104.872 15.9273 4.60703
2270 1 109.167 15.9265 3.25211
2271 1 113.462 15.9257 4.60703
2272 1 117.756 15.9248 3.25211
2273 1 122.05 15.9243 4.60694
2274 1 126.344 15.9255 3.25395
2275 1 130.665 15.9134 4.62103
2276 1 135.035 15.9953 3.27679
441 1 4.23637 17.6614 4.04436
442 1 3.29089 19.3426 5.38042
443 1 7.64336 19.3667 4.01851
444 1 8.50149 17.6445 5.37282
445 1 12.7925 17.6432 4.01834
446 1 11.9347 19.3636 5.37277
447 1 16.2282 19.3639 4.01844
448 1 17.087 17.6443 5.37342
449 1 21.3818 17.6452 4.01847
450 1 20.5228 19.3647 5.37341
451 1 24.8175 19.3656 4.01848
452 1 25.6765 17.646 5.37339
453 1 29.9711 17.6469 4.01848
454 1 29.1122 19.3664 5.37339
455 1 33.4069 19.3672 4.01848