ITEM: TIMESTEP
2906
ITEM: NUMBER OF ATOMS
7968
ITEM: BOX BOUNDS pp pp pp
-1.7053492630369582e-01 1.2785001692630375e+02
3.0587415203324617e-02 6.3809153584796647e+01
7.0655464477004191e-03 1.1412934453552289e+01
ITEM: ATOMS id type x y z
1 1 1.70459 1.6185 1.93285
2 1 5.53553 2.93065 1.93285
3 1 3.61952 2.27997 0.507119
4 1 3.61952 2.27997 3.35859
5 1 4.36202 0.396722 1.93285
6 1 8.15285 1.67913 1.93285
7 1 6.2519 1.03959 0.507119
8 1 6.2519 1.03959 3.35859
9 1 10.0604 2.31748 0.507119
10 1 10.0604 2.31748 3.35859
11 1 10.7327 0.412112 1.93285
12 1 11.9719 2.95619 1.93285
13 1 14.55 1.69083 1.93285
14 1 12.6402 1.05123 0.507119
15 1 12.6402 1.05123 3.35859
16 1 16.4614 2.33122 0.507119
17 1 16.4614 2.33122 3.35859
18 1 17.1158 0.422333 1.93285
19 1 19.0267 1.06356 0.507119
20 1 19.0267 1.06356 3.35859
21 1 18.3742 2.9724 1.93285
22 1 20.9388 1.70536 1.93285
23 1 22.8518 2.34763 0.507119
24 1 25.4101 1.07957 0.507119
25 1 22.8518 2.34763 3.35859
26 1 25.4101 1.07957 3.35859
27 1 23.4969 0.436739 1.93285
28 1 24.7657 2.9903 1.93285
29 1 27.3241 1.72271 1.93285
30 1 29.2388 2.36612 0.507119
31 1 31.7937 1.09823 0.507119
32 1 29.2388 2.36612 3.35859
33 1 31.7937 1.09823 3.35859
34 1 29.8786 0.454366 1.93285
35 1 31.1542 3.00978 1.93285
36 1 33.7094 1.7423 1.93285
37 1 38.1779 1.11885 0.507119
38 1 35.6257 2.3866 0.507119
39 1 38.1779 1.11885 3.35859
40 1 35.6257 2.3866 3.35859
41 1 36.2615 0.474254 1.93285
42 1 37.5425 3.03112 1.93285
43 1 40.0946 1.76366 1.93285
44 1 42.0118 2.4087 0.507119
45 1 44.5595 1.1402 0.507119
46 1 42.0118 2.4087 3.35859
47 1 44.5595 1.1402 3.35859
48 1 42.6432 0.495182 1.93285
49 1 43.9295 3.054 1.93285
50 1 46.4758 1.78536 1.93285
51 1 48.392 2.43055 0.507119
52 1 48.392 2.43055 3.35859
53 1 49.0193 0.515263 1.93285
3137 1 50.9339 1.15969 3.35859
3138 1 50.9339 1.15969 0.507119
3139 1 50.3081 3.07555 1.93285
3140 1 52.8482 1.80325 1.93285
3141 1 54.7623 2.44527 3.35859
3142 1 54.7623 2.44527 0.507119
3143 1 55.389 0.528177 1.93285
3144 1 56.6763 3.08555 1.93285
3145 1 57.3008 1.16581 3.35859
3146 1 57.3008 1.16581 0.507119
3147 1 59.2092 1.80106 1.93285
3148 1 61.1128 2.42406 3.35859
3149 1 61.1128 2.42406 0.507119
3150 1 61.7952 0.549141 1.93285
3151 1 62.9473 3.0819 1.93285
3152 1 63.8158 1.00318 0.507119
3153 1 63.8158 1.00318 3.35859
3154 1 65.2163 2.71072 1.93285
3155 1 66.7972 1.55803 3.35859
3156 1 66.7972 1.55803 0.507119
3157 1 69.5852 2.08477 3.35859
3158 1 68.4472 0.418468 1.93285
3159 1 69.5852 2.08477 0.507119
3160 1 71.2438 0.932327 1.93285
3161 1 72.3934 2.59361 3.35859
3162 1 72.3934 2.59361 0.507119
3163 1 74.0498 1.44494 1.93285
3164 1 75.7073 0.297395 0.507119
3165 1 75.7073 0.297395 3.35859
3166 1 75.1959 3.11034 0.507119
3167 1 75.1959 3.11034 3.35859
3168 1 76.8555 1.96279 1.93285
3169 1 78.5159 0.817239 0.507119
3170 1 78.5159 0.817239 3.35859
3171 1 79.6653 2.48161 1.93285
3172 1 82.4778 3.001 1.93285
3173 1 81.3274 1.33767 0.507119
3174 1 81.3274 1.33767 3.35859
3175 1 82.9901 0.194899 1.93285
3176 1 84.1405 1.85809 0.507119
3177 1 84.1405 1.85809 3.35859
3178 1 85.8036 0.715724 1.93285
3179 1 88.6172 1.23627 1.93285
3180 1 86.9542 2.3785 0.507119
3181 1 86.9542 2.3785 3.35859
3182 1 91.4306 1.75672 1.93285
3183 1 89.7678 2.89895 0.507119
3184 1 89.7678 2.89895 3.35859
3185 1 90.2802 0.0939894 0.507119
3186 1 90.2802 0.0939894 3.35859
3187 1 94.2436 2.2772 1.93285
3188 1 93.0933 0.614375 0.507119
3189 1 93.0933 0.614375 3.35859
3190 1 97.0563 2.79767 1.93285
3191 1 98.718 1.65537 0.507119
3192 1 95.9058 1.13484 0.507119
3193 1 98.718 1.65537 3.35859
3194 1 95.9058 1.13484 3.35859
3195 1 101.53 2.17577 0.507119
3196 1 101.53 2.17577 3.35859
3197 1 100.38 0.513177 1.93285
3198 1 104.344 2.69574 0.507119
3199 1 103.192 1.03412 1.93285
3200 1 104.344 2.69574 3.35859
3201 1 106.005 1.55509 1.93285
3202 1 107.668 0.416167 0.507119
3203 1 107.668 0.416167 3.35859
3204 1 107.159 3.21497 0.507119
3205 1 107.159 3.21497 3.35859
3206 1 108.822 2.07609 1.93285
3207 1 111.644 2.59752 1.93285
3208 1 110.486 0.94004 0.507119
3209 1 110.486 0.94004 3.35859
3210 1 114.475 3.1205 1.93285
3211 1 113.311 1.46571 0.507119
3212 1 113.311 1.46571 3.35859
3213 1 114.978 0.337697 1.93285
3214 1 116.145 1.99463 0.507119
3215 1 117.815 0.87244 1.93285
3216 1 116.145 1.99463 3.35859
3217 1 120.666 1.409 1.93285
3218 1 118.994 2.52828 0.507119
3219 1 118.994 2.52828 3.35859
3220 1 123.473 1.95584 1.93285
3221 1 121.85 3.08318 0.507119
3222 1 121.85 3.08318 3.35859
3223 1 122.337 0.278603 0.507119
3224 1 122.337 0.278603 3.35859
3225 1 126.954 2.85852 1.93285
3226 1 125.252 1.04236 0.507119
3227 1 127.835 0.952951 0.507119
3228 1 125.252 1.04236 3.35859
3229 1 127.835 0.952951 3.35859
54 1 0.951827 3.47138 0.507119
55 1 0.951827 3.47138 3.35859
56 1 2.89143 4.15815 1.93285
57 1 0.306044 5.3756 1.93285
58 1 2.20778 6.05583 0.507119
59 1 2.20778 6.05583 3.35859
60 1 4.82531 4.81704 0.507119
61 1 4.82531 4.81704 3.35859
62 1 7.45388 3.57413 0.507119
63 1 7.45388 3.57413 3.35859
64 1 9.37384 4.21478 1.93285
65 1 6.75784 5.46466 1.93285
66 1 8.68899 6.10815 0.507119
67 1 8.68899 6.10815 3.35859
68 1 11.2945 4.85527 0.507119
69 1 11.2945 4.85527 3.35859
70 1 13.8856 3.59591 0.507119
71 1 13.8856 3.59591 3.35859
72 1 15.8006 4.23671 1.93285
73 1 13.2152 5.4966 1.93285
74 1 15.1358 6.13887 0.507119
75 1 15.1358 6.13887 3.35859
76 1 17.7165 4.87841 0.507119
77 1 17.7165 4.87841 3.35859
78 1 20.2879 3.61423 0.507119
79 1 20.2879 3.61423 3.35859
80 1 22.2024 4.2566 1.93285
81 1 19.6329 5.52079 1.93285
82 1 21.5497 6.16365 0.507119
83 1 21.5497 6.16365 3.35859
84 1 24.1176 4.89936 0.507119
85 1 24.1176 4.89936 3.35859
86 1 26.6803 3.6333 0.507119
87 1 26.6803 3.6333 3.35859
88 1 28.5956 4.27659 1.93285
89 1 26.0333 5.54244 1.93285
90 1 27.9494 6.18578 0.507119
91 1 27.9494 6.18578 3.35859
92 1 30.5114 4.92011 0.507119
93 1 30.5114 4.92011 3.35859
94 1 33.0702 3.65367 0.507119
95 1 33.0702 3.65367 3.35859
96 1 34.9868 4.29778 1.93285
97 1 32.4278 5.56386 1.93285
98 1 34.3447 6.2078 0.507119
99 1 34.3447 6.2078 3.35859
100 1 36.904 4.94214 0.507119
101 1 36.904 4.94214 3.35859
102 1 39.46 3.6759 0.507119
103 1 39.46 3.6759 3.35859
104 1 41.3782 4.32097 1.93285
105 1 38.822 5.58673 1.93285
106 1 40.7406 6.23159 0.507119
107 1 40.7406 6.23159 3.35859
108 1 43.2971 4.96636 0.507119
109 1 43.2971 4.96636 3.35859
110 1 45.8475 3.69957 0.507119
111 1 45.8475 3.69957 3.35859
112 1 47.7661 4.34536 1.93285
113 1 45.217 5.61212 1.93285
114 1 47.138 6.25828 0.507119
115 1 47.138 6.25828 3.35859
116 1 49.6851 4.99127 0.507119
117 1 49.6851 4.99127 3.35859
3230 1 51.6044 5.63708 1.93285
3231 1 52.2238 3.71991 3.35859
3232 1 52.2238 3.71991 0.507119
3233 1 54.1386 4.36312 1.93285
3234 1 53.5239 6.28264 3.35859
3235 1 53.5239 6.28264 0.507119
3236 1 56.0515 5.00481 0.507119
3237 1 56.0515 5.00481 3.35859
3238 1 57.9605 5.64482 1.93285
3239 1 58.5908 3.72442 3.35859
3240 1 58.5908 3.72442 0.507119
3241 1 59.8628 6.28281 3.35859
3242 1 59.8628 6.28281 0.507119
3243 1 60.5064 4.36391 1.93285
3244 1 62.4378 5.02323 0.507119
3245 1 62.4378 5.02323 3.35859
3246 1 64.4567 5.46926 1.93285
3247 1 66.2498 4.41988 3.35859
3248 1 66.2498 4.41988 0.507119
3249 1 67.9232 3.24011 1.93285
3250 1 69.0844 4.88708 3.35859
3251 1 67.4324 6.01991 1.93285
3252 1 69.0844 4.88708 0.507119
3253 1 70.7378 3.74157 1.93285
3254 1 71.8754 5.40894 3.35859
3255 1 71.8754 5.40894 0.507119
3256 1 73.5362 4.2593 1.93285
3257 1 76.3425 4.77429 1.93285
3258 1 74.6805 5.92266 0.507119
3259 1 74.6805 5.92266 3.35859
3260 1 78.0038 3.62714 0.507119
3261 1 78.0038 3.62714 3.35859
3262 1 79.1536 5.28988 1.93285
3263 1 80.8155 4.14485 0.507119
3264 1 81.9664 5.80737 1.93285
3265 1 80.8155 4.14485 3.35859
3266 1 85.2913 3.52092 1.93285
3267 1 84.7799 6.32625 1.93285
3268 1 83.6287 4.66378 0.507119
3269 1 83.6287 4.66378 3.35859
3270 1 88.1051 4.04115 1.93285
3271 1 86.4424 5.18351 0.507119
3272 1 89.2562 5.70369 0.507119
3273 1 86.4424 5.18351 3.35859
3274 1 89.2562 5.70369 3.35859
3275 1 92.5812 3.41944 0.507119
3276 1 92.5812 3.41944 3.35859
3277 1 90.9187 4.56157 1.93285
3278 1 92.07 6.22406 0.507119
3279 1 92.07 6.22406 3.35859
3280 1 95.3944 3.93991 0.507119
3281 1 95.3944 3.93991 3.35859
3282 1 93.7323 5.08203 1.93285
3283 1 96.5458 5.60233 1.93285
3284 1 98.2075 4.46014 0.507119
3285 1 98.2075 4.46014 3.35859
3286 1 99.869 3.31789 1.93285
3287 1 99.3597 6.12207 1.93285
3288 1 101.021 4.97973 0.507119
3289 1 101.021 4.97973 3.35859
3290 1 102.682 3.83748 1.93285
3291 1 103.836 5.49806 0.507119
3292 1 103.836 5.49806 3.35859
3293 1 105.497 4.35591 1.93285
3294 1 108.315 4.87277 1.93285
3295 1 106.652 6.01447 0.507119
3296 1 106.652 6.01447 3.35859
3297 1 109.979 3.73343 0.507119
3298 1 109.979 3.73343 3.35859
3299 1 111.137 5.38807 1.93285
3300 1 112.805 4.25171 0.507119
3301 1 113.967 5.90265 1.93285
3302 1 112.805 4.25171 3.35859
3303 1 117.317 3.64689 1.93285
3304 1 115.64 4.77132 0.507119
3305 1 115.64 4.77132 3.35859
3306 1 120.172 4.18284 1.93285
3307 1 121.364 5.81864 0.507119
3308 1 118.488 5.2959 0.507119
3309 1 118.488 5.2959 3.35859
3310 1 121.364 5.81864 3.35859
3311 1 123.083 4.70384 1.93285
3312 1 124.194 6.40168 0.507119
3313 1 124.194 6.40168 3.35859
3314 1 124.813 3.59034 0.507119
3315 1 124.813 3.59034 3.35859
3316 1 125.931 5.38627 1.93285
118 1 1.50769 7.92423 1.93285
119 1 4.14133 6.71031 1.93285
120 1 6.07874 7.3579 0.507119
121 1 5.41285 9.25281 1.93285
122 1 3.46297 8.6044 0.507119
123 1 6.07874 7.3579 3.35859
124 1 3.46297 8.6044 3.35859
125 1 8.0166 8.00225 1.93285
126 1 10.6185 6.75114 1.93285
127 1 12.5463 7.39479 0.507119
128 1 11.8856 9.29307 1.93285
129 1 9.95245 8.64716 0.507119
130 1 12.5463 7.39479 3.35859
131 1 9.95245 8.64716 3.35859
132 1 14.4725 8.03915 1.93285
133 1 17.056 6.78187 1.93285
134 1 18.976 7.42538 0.507119
135 1 16.3972 8.68396 0.507119
136 1 18.976 7.42538 3.35859
137 1 16.3972 8.68396 3.35859
138 1 18.3207 9.32898 1.93285
139 1 20.8956 8.06918 1.93285
140 1 23.4667 6.80685 1.93285
141 1 25.3839 7.45029 0.507119
142 1 22.8149 8.71316 0.507119
143 1 25.3839 7.45029 3.35859
144 1 22.8149 8.71316 3.35859
145 1 24.7339 9.35723 1.93285
146 1 27.3013 8.0939 1.93285
147 1 29.8659 6.82932 1.93285
148 1 31.7828 7.47302 0.507119
149 1 29.2187 8.73764 0.507119
150 1 31.7828 7.47302 3.35859
151 1 29.2187 8.73764 3.35859
152 1 31.1362 9.38146 1.93285
153 1 33.6999 8.11686 1.93285
154 1 36.2621 6.85192 1.93285
155 1 35.6174 8.76081 0.507119
156 1 38.1801 7.49623 0.507119
157 1 38.1801 7.49623 3.35859
158 1 35.6174 8.76081 3.35859
159 1 37.5351 9.40484 1.93285
160 1 40.0986 8.1407 1.93285
161 1 42.6602 6.87675 1.93285
162 1 44.5808 7.52223 0.507119
163 1 42.0178 8.78533 0.507119
164 1 44.5808 7.52223 3.35859
165 1 42.0178 8.78533 3.35859
166 1 43.9378 9.4301 1.93285
167 1 46.5029 8.16806 1.93285
168 1 48.4269 8.81429 0.507119
169 1 48.4269 8.81429 3.35859
170 1 49.0604 6.90484 1.93285
3317 1 50.9847 7.55186 3.35859
3318 1 50.9847 7.55186 0.507119
3319 1 50.3534 9.46105 1.93285
3320 1 52.9112 8.19959 1.93285
3321 1 54.8405 8.84867 3.35859
3322 1 54.8405 8.84867 0.507119
3323 1 55.4425 6.92804 1.93285
3324 1 56.7729 9.50041 1.93285
3325 1 57.3588 7.57379 3.35859
3326 1 57.3588 7.57379 0.507119
3327 1 59.2703 8.21948 1.93285
3328 1 61.1721 8.86119 3.35859
3329 1 61.1721 8.86119 0.507119
3330 1 61.7586 6.90352 1.93285
3331 1 63.0795 9.48742 1.93285
3332 1 63.5878 7.54938 0.507119
3333 1 63.5878 7.54938 3.35859
3334 1 65.8474 7.16433 0.507119
3335 1 65.8474 7.16433 3.35859
3336 1 66.8633 8.87367 1.93285
3337 1 68.5443 7.70889 3.35859
3338 1 70.2116 6.55849 1.93285
3339 1 69.675 9.36781 1.93285
3340 1 68.5443 7.70889 0.507119
3341 1 71.3491 8.22016 3.35859
3342 1 71.3491 8.22016 0.507119
3343 1 73.0166 7.07153 1.93285
3344 1 74.1662 8.72893 0.507119
3345 1 74.1662 8.72893 3.35859
3346 1 75.8296 7.58266 1.93285
3347 1 76.9804 9.24227 0.507119
3348 1 76.9804 9.24227 3.35859
3349 1 77.4919 6.43599 0.507119
3350 1 77.4919 6.43599 3.35859
3351 1 78.6426 8.09695 1.93285
3352 1 80.3045 6.95181 0.507119
3353 1 80.3045 6.95181 3.35859
3354 1 81.4558 8.61347 1.93285
3355 1 83.1177 7.46955 0.507119
3356 1 84.2692 9.13157 1.93285
3357 1 85.9314 7.98854 0.507119
3358 1 83.1177 7.46955 3.35859
3359 1 85.9314 7.98854 3.35859
3360 1 87.5937 6.84596 1.93285
3361 1 88.7453 8.50826 0.507119
3362 1 88.7453 8.50826 3.35859
3363 1 90.4076 7.36609 1.93285
3364 1 91.5594 9.02829 0.507119
3365 1 91.5594 9.02829 3.35859
3366 1 94.8839 6.74438 0.507119
3367 1 94.8839 6.74438 3.35859
3368 1 93.2217 7.88633 1.93285
3369 1 94.3739 9.5483 0.507119
3370 1 94.3739 9.5483 3.35859
3371 1 97.698 7.2643 0.507119
3372 1 96.0361 8.40636 1.93285
3373 1 98.851 8.92574 1.93285
3374 1 97.698 7.2643 3.35859
3375 1 102.174 6.64068 1.93285
3376 1 101.667 9.44389 1.93285
3377 1 100.513 7.78332 0.507119
3378 1 100.513 7.78332 3.35859
3379 1 104.99 7.15742 1.93285
3380 1 103.329 8.30074 0.507119
3381 1 103.329 8.30074 3.35859
3382 1 107.808 7.6715 1.93285
3383 1 106.146 8.8157 0.507119
3384 1 106.146 8.8157 3.35859
3385 1 109.472 6.52849 0.507119
3386 1 109.472 6.52849 3.35859
3387 1 110.629 8.18246 1.93285
3388 1 108.964 9.32739 0.507119
3389 1 108.964 9.32739 3.35859
3390 1 112.296 7.04024 0.507119
3391 1 112.296 7.04024 3.35859
3392 1 113.454 8.69073 1.93285
3393 1 116.806 6.41889 1.93285
3394 1 115.127 7.55106 0.507119
3395 1 116.284 9.19817 1.93285
3396 1 117.968 8.06314 0.507119
3397 1 115.127 7.55106 3.35859
3398 1 117.968 8.06314 3.35859
3399 1 119.662 6.93728 1.93285
3400 1 120.81 8.5913 0.507119
3401 1 120.81 8.5913 3.35859
3402 1 122.509 7.48543 1.93285
3403 1 123.682 9.11409 0.507119
3404 1 123.682 9.11409 3.35859
3405 1 127.503 7.32197 0.507119
3406 1 125.456 8.05277 1.93285
3407 1 127.503 7.32197 3.35859
171 1 0.912975 9.83972 0.507119
172 1 0.912975 9.83972 3.35859
173 1 2.82785 10.5186 1.93285
174 1 0.139269 11.7697 1.93285
175 1 2.17546 12.413 0.507119
176 1 2.17546 12.413 3.35859
177 1 4.77667 11.1554 0.507119
178 1 4.77667 11.1554 3.35859
179 1 7.359 9.89832 0.507119
180 1 7.359 9.89832 3.35859
181 1 9.30045 10.5453 1.93285
182 1 6.7254 11.7999 1.93285
183 1 8.66875 12.4483 0.507119
184 1 8.66875 12.4483 3.35859
185 1 11.2375 11.1935 0.507119
186 1 11.2375 11.1935 3.35859
187 1 13.8161 9.9396 0.507119
188 1 13.8161 9.9396 3.35859
189 1 15.7443 10.5863 1.93285
190 1 13.1708 11.8421 1.93285
191 1 15.1009 12.4907 0.507119
192 1 15.1009 12.4907 3.35859
193 1 17.6705 11.233 0.507119
194 1 17.6705 11.233 3.35859
195 1 20.2431 9.97403 0.507119
196 1 20.2431 9.97403 3.35859
197 1 22.1646 10.619 1.93285
198 1 19.5951 11.8793 1.93285
199 1 21.5183 12.5254 0.507119
200 1 21.5183 12.5254 3.35859
201 1 24.0854 11.2639 0.507119
202 1 24.0854 11.2639 3.35859
203 1 26.6527 10.0013 0.507119
204 1 26.6527 10.0013 3.35859
205 1 28.5712 10.6455 1.93285
206 1 26.0055 11.9087 1.93285
207 1 27.925 12.5533 0.507119
208 1 27.925 12.5533 3.35859
209 1 30.4894 11.2896 0.507119
210 1 30.4894 11.2896 3.35859
211 1 33.0537 10.0253 0.507119
212 1 33.0537 10.0253 3.35859
213 1 34.9713 10.6693 1.93285
214 1 32.4074 11.9337 1.93285
215 1 34.3252 12.5777 0.507119
216 1 34.3252 12.5777 3.35859
217 1 36.8888 11.3132 0.507119
218 1 36.8888 11.3132 3.35859
219 1 39.4531 10.0489 0.507119
220 1 39.4531 10.0489 3.35859
221 1 41.3714 10.693 1.93285
222 1 38.8063 11.957 1.93285
223 1 40.7237 12.6008 0.507119
224 1 40.7237 12.6008 3.35859
225 1 43.29 11.337 0.507119
226 1 43.29 11.337 3.35859
227 1 45.8588 10.075 0.507119
228 1 45.8588 10.075 3.35859
229 1 47.781 10.7199 1.93285
230 1 45.2088 11.9809 1.93285
231 1 47.1277 12.6245 0.507119
232 1 47.1277 12.6245 3.35859
233 1 49.7047 11.3648 0.507119
234 1 49.7047 11.3648 3.35859
3408 1 51.6301 12.0097 1.93285
3409 1 52.2836 10.1087 3.35859
3410 1 52.2836 10.1087 0.507119
3411 1 54.2191 10.7581 1.93285
3412 1 53.5577 12.6547 3.35859
3413 1 53.5577 12.6547 0.507119
3414 1 56.1631 11.4111 0.507119
3415 1 56.1631 11.4111 3.35859
3416 1 58.1229 12.0715 1.93285
3417 1 58.7073 10.1573 3.35859
3418 1 58.7073 10.1573 0.507119
3419 1 60.1265 12.7497 3.35859
3420 1 60.1265 12.7497 0.507119
3421 1 60.6381 10.8176 1.93285
3422 1 62.5695 11.4333 0.507119
3423 1 62.5695 11.4333 3.35859
3424 1 65.0711 9.9387 0.507119
3425 1 65.0711 9.9387 3.35859
3426 1 66.2824 11.6081 1.93285
3427 1 64.5781 12.7563 0.507119
3428 1 64.5781 12.7563 3.35859
3429 1 67.9868 10.5076 3.35859
3430 1 69.1595 12.1413 1.93285
3431 1 67.9868 10.5076 0.507119
3432 1 70.8324 11.0131 3.35859
3433 1 70.8324 11.0131 0.507119
3434 1 72.5008 9.87334 1.93285
3435 1 71.9842 12.6682 1.93285
3436 1 73.6522 11.5296 0.507119
3437 1 73.6522 11.5296 3.35859
3438 1 75.3171 10.3869 1.93285
3439 1 76.4683 12.0457 0.507119
3440 1 76.4683 12.0457 3.35859
3441 1 78.1315 10.9022 1.93285
3442 1 79.7938 9.75783 0.507119
3443 1 79.7938 9.75783 3.35859
3444 1 79.2828 12.5624 0.507119
3445 1 79.2828 12.5624 3.35859
3446 1 82.6072 10.2751 0.507119
3447 1 82.6072 10.2751 3.35859
3448 1 80.9452 11.4188 1.93285
3449 1 83.7589 11.9366 1.93285
3450 1 85.4209 10.7935 0.507119
3451 1 85.4209 10.7935 3.35859
3452 1 87.083 9.65069 1.93285
3453 1 86.5727 12.4553 1.93285
3454 1 88.2349 11.3127 0.507119
3455 1 88.2349 11.3127 3.35859
3456 1 89.8971 10.1704 1.93285
3457 1 91.0493 11.8323 0.507119
3458 1 91.0493 11.8323 3.35859
3459 1 92.7116 10.6902 1.93285
3460 1 95.5266 11.2099 1.93285
3461 1 93.8641 12.3519 0.507119
3462 1 93.8641 12.3519 3.35859
3463 1 97.189 10.0679 0.507119
3464 1 97.189 10.0679 3.35859
3465 1 98.3423 11.7291 1.93285
3466 1 100.005 10.5867 0.507119
3467 1 101.159 12.2472 1.93285
3468 1 100.005 10.5867 3.35859
3469 1 104.483 9.96004 1.93285
3470 1 102.821 11.1039 0.507119
3471 1 102.821 11.1039 3.35859
3472 1 103.975 12.7638 1.93285
3473 1 107.301 10.4733 1.93285
3474 1 105.638 11.619 0.507119
3475 1 108.455 12.131 0.507119
3476 1 105.638 11.619 3.35859
3477 1 108.455 12.131 3.35859
3478 1 111.785 9.8355 0.507119
3479 1 111.785 9.8355 3.35859
3480 1 110.119 10.983 1.93285
3481 1 111.271 12.6395 0.507119
3482 1 111.271 12.6395 3.35859
3483 1 114.607 10.341 0.507119
3484 1 112.937 11.4891 1.93285
3485 1 114.607 10.341 3.35859
3486 1 115.752 11.9944 1.93285
3487 1 117.43 10.8491 0.507119
3488 1 117.43 10.8491 3.35859
3489 1 119.115 9.71361 1.93285
3490 1 118.565 12.5038 1.93285
3491 1 120.253 11.3661 0.507119
3492 1 120.253 11.3661 3.35859
3493 1 121.956 10.2407 1.93285
3494 1 123.054 11.9315 0.507119
3495 1 123.054 11.9315 3.35859
3496 1 126.522 9.88599 0.507119
3497 1 126.522 9.88599 3.35859
3498 1 124.707 10.8051 1.93285
3499 1 125.895 12.4489 0.507119
3500 1 125.895 12.4489 3.35859
235 1 1.72396 14.3659 1.93285
236 1 4.16241 13.0594 1.93285
237 1 6.1188 13.7082 0.507119
238 1 5.56472 15.6358 1.93285
239 1 3.64243 14.9953 0.507119
240 1 6.1188 13.7082 3.35859
241 1 3.64243 14.9953 3.35859
242 1 8.06148 14.3587 1.93285
243 1 10.6066 13.0984 1.93285
244 1 12.54 13.7487 0.507119
245 1 11.9256 15.6611 1.93285
246 1 9.99609 15.01 0.507119
247 1 12.54 13.7487 3.35859
248 1 9.99609 15.01 3.35859
249 1 14.4697 14.3985 1.93285
250 1 17.0285 13.1387 1.93285
251 1 18.9541 13.7863 0.507119
252 1 18.3215 15.6959 1.93285
253 1 16.3967 15.0476 0.507119
254 1 18.9541 13.7863 3.35859
255 1 16.3967 15.0476 3.35859
256 1 20.878 14.4332 1.93285
257 1 23.4404 13.1711 1.93285
258 1 25.3614 13.8166 0.507119
259 1 22.8005 15.0796 0.507119
260 1 25.3614 13.8166 3.35859
261 1 22.8005 15.0796 3.35859
262 1 24.7218 15.7257 1.93285
263 1 27.2816 14.4618 1.93285
264 1 29.844 13.1979 1.93285
265 1 31.7624 13.8423 0.507119
266 1 29.2011 15.1068 0.507119
267 1 31.7624 13.8423 3.35859
268 1 29.2011 15.1068 3.35859
269 1 31.1199 15.7515 1.93285
270 1 33.6804 14.4866 1.93285
271 1 36.2426 13.2217 1.93285
272 1 38.1598 13.8655 0.507119
273 1 35.598 15.1307 0.507119
274 1 38.1598 13.8655 3.35859
275 1 35.598 15.1307 3.35859
276 1 37.5151 15.7747 1.93285
277 1 40.0767 14.5092 1.93285
278 1 42.641 13.2444 1.93285
279 1 44.558 13.8877 0.507119
280 1 41.9932 15.1527 0.507119
281 1 44.558 13.8877 3.35859
282 1 41.9932 15.1527 3.35859
283 1 43.9092 15.796 1.93285
284 1 46.4746 14.5307 1.93285
285 1 48.3905 15.1733 0.507119
286 1 48.3905 15.1733 3.35859
287 1 49.0464 13.2676 1.93285
3501 1 50.9645 13.91 3.35859
3502 1 50.9645 13.91 0.507119
3503 1 50.3054 15.8155 1.93285
3504 1 52.8807 14.5516 1.93285
3505 1 54.7927 15.1921 3.35859
3506 1 54.7927 15.1921 0.507119
3507 1 55.4876 13.3003 1.93285
3508 1 56.6958 15.8316 1.93285
3509 1 57.4195 13.9456 3.35859
3510 1 57.4195 13.9456 0.507119
3511 1 59.3448 14.5952 1.93285
3512 1 61.221 15.2827 3.35859
3513 1 61.221 15.2827 0.507119
3514 1 62.2778 13.5582 1.93285
3515 1 64.0318 15.2592 0.507119
3516 1 64.0318 15.2592 3.35859
3517 1 65.8504 14.3762 1.93285
3518 1 67.4809 13.2437 3.35859
3519 1 68.6336 14.9204 1.93285
3520 1 67.4809 13.2437 0.507119
3521 1 70.311 13.7989 3.35859
3522 1 70.311 13.7989 0.507119
3523 1 71.4654 15.4571 1.93285
3524 1 73.1361 14.3253 0.507119
3525 1 73.1361 14.3253 3.35859
3526 1 74.8034 13.1874 1.93285
3527 1 75.9548 14.8462 0.507119
3528 1 75.9548 14.8462 3.35859
3529 1 77.6195 13.7052 1.93285
3530 1 78.771 15.3652 0.507119
3531 1 78.771 15.3652 3.35859
3532 1 82.0967 13.0799 0.507119
3533 1 82.0967 13.0799 3.35859
3534 1 80.4342 14.2229 1.93285
3535 1 81.5858 15.8837 0.507119
3536 1 81.5858 15.8837 3.35859
3537 1 84.9106 13.5981 0.507119
3538 1 83.2484 14.7411 1.93285
3539 1 86.0624 15.2596 1.93285
3540 1 84.9106 13.5981 3.35859
3541 1 89.3869 12.9745 1.93285
3542 1 88.8767 15.7786 1.93285
3543 1 87.7247 14.117 0.507119
3544 1 87.7247 14.117 3.35859
3545 1 92.2016 13.4939 1.93285
3546 1 90.5391 14.6362 0.507119
3547 1 90.5391 14.6362 3.35859
3548 1 95.0168 14.0133 1.93285
3549 1 93.354 15.1554 0.507119
3550 1 93.354 15.1554 3.35859
3551 1 96.6796 12.8712 0.507119
3552 1 96.6796 12.8712 3.35859
3553 1 97.8327 14.5323 1.93285
3554 1 96.1695 15.6745 0.507119
3555 1 96.1695 15.6745 3.35859
3556 1 99.4958 13.3899 0.507119
3557 1 99.4958 13.3899 3.35859
3558 1 100.649 15.0508 1.93285
3559 1 102.312 13.9077 0.507119
3560 1 103.465 15.5686 1.93285
3561 1 105.129 14.4241 0.507119
3562 1 102.312 13.9077 3.35859
3563 1 105.129 14.4241 3.35859
3564 1 106.792 13.2783 1.93285
3565 1 107.944 14.9388 0.507119
3566 1 107.944 14.9388 3.35859
3567 1 109.607 13.79 1.93285
3568 1 110.755 15.4514 0.507119
3569 1 110.755 15.4514 3.35859
3570 1 114.082 13.1454 0.507119
3571 1 114.082 13.1454 3.35859
3572 1 112.417 14.2987 1.93285
3573 1 113.558 15.9617 0.507119
3574 1 113.558 15.9617 3.35859
3575 1 116.889 13.6518 0.507119
3576 1 115.221 14.8057 1.93285
3577 1 118.015 15.3151 1.93285
3578 1 116.889 13.6518 3.35859
3579 1 121.364 13.0345 1.93285
3580 1 120.806 15.8267 1.93285
3581 1 119.685 14.1673 0.507119
3582 1 119.685 14.1673 3.35859
3583 1 124.198 13.5939 1.93285
3584 1 122.491 14.6869 0.507119
3585 1 122.491 14.6869 3.35859
3586 1 127.818 13.834 0.507119
3587 1 127.33 15.7579 1.93285
3588 1 125.36 15.2836 0.507119
3589 1 127.818 13.834 3.35859
3590 1 125.36 15.2836 3.35859
288 1 1.21753 16.3324 0.507119
289 1 1.21753 16.3324 3.35859
290 1 0.6409 18.2868 1.93285
291 1 2.53127 18.8813 0.507119
292 1 2.53127 18.8813 3.35859
293 1 3.1108 16.9429 1.93285
294 1 5.01108 17.5729 0.507119
295 1 5.01108 17.5729 3.35859
296 1 7.48652 16.2822 0.507119
297 1 7.48652 16.2822 3.35859
298 1 9.40691 16.9312 1.93285
299 1 6.91488 18.2132 1.93285
300 1 8.82133 18.8585 0.507119
301 1 8.82133 18.8585 3.35859
302 1 11.3261 17.5808 0.507119
303 1 11.3261 17.5808 3.35859
304 1 13.8516 16.3114 0.507119
305 1 13.8516 16.3114 3.35859
306 1 15.7754 16.9607 1.93285
307 1 13.2445 18.2299 1.93285
308 1 15.1624 18.8781 0.507119
309 1 15.1624 18.8781 3.35859
310 1 17.6975 17.6089 0.507119
311 1 17.6975 17.6089 3.35859
312 1 20.2447 16.3433 0.507119
313 1 20.2447 16.3433 3.35859
314 1 22.1665 16.9902 1.93285
315 1 19.6184 18.2563 1.93285
316 1 21.5383 18.9031 0.507119
317 1 21.5383 18.9031 3.35859
318 1 24.0872 17.6365 0.507119
319 1 24.0872 17.6365 3.35859
320 1 26.6422 16.3713 0.507119
321 1 26.6422 16.3713 3.35859
322 1 28.5617 17.0167 1.93285
323 1 26.007 18.2824 1.93285
324 1 27.9261 18.9279 0.507119
325 1 27.9261 18.9279 3.35859
326 1 30.4804 17.6617 0.507119
327 1 30.4804 17.6617 3.35859
328 1 33.038 16.3961 0.507119
329 1 33.038 16.3961 3.35859
330 1 34.9556 17.0405 1.93285
331 1 32.3986 18.3066 1.93285
332 1 34.3161 18.9512 0.507119
333 1 34.3161 18.9512 3.35859
334 1 36.8727 17.6847 0.507119
335 1 36.8727 17.6847 3.35859
336 1 39.4317 16.4185 0.507119
337 1 39.4317 16.4185 3.35859
338 1 41.3478 17.0621 1.93285
339 1 38.7893 18.3288 1.93285
340 1 40.7053 18.9726 0.507119
341 1 40.7053 18.9726 3.35859
342 1 43.2634 17.7056 0.507119
343 1 43.2634 17.7056 3.35859
344 1 45.8245 16.4389 0.507119
345 1 45.8245 16.4389 3.35859
346 1 47.7391 17.0816 1.93285
347 1 45.1784 18.3487 1.93285
348 1 47.0927 18.9917 0.507119
349 1 47.0927 18.9917 3.35859
350 1 49.6527 17.724 0.507119
351 1 49.6527 17.724 3.35859
3591 1 51.5648 18.3664 1.93285
3592 1 52.2189 16.4575 3.35859
3593 1 52.2189 16.4575 0.507119
3594 1 54.1306 17.1 1.93285
3595 1 53.4748 19.0093 3.35859
3596 1 53.4748 19.0093 0.507119
3597 1 56.0406 17.7452 0.507119
3598 1 56.0406 17.7452 3.35859
3599 1 57.9492 18.4025 1.93285
3600 1 58.5798 16.4751 3.35859
3601 1 58.5798 16.4751 0.507119
3602 1 60.4055 17.1947 1.93285
3603 1 59.8739 19.0909 3.35859
3604 1 59.8739 19.0909 0.507119
3605 1 62.6878 16.6845 1.93285
3606 1 63.6737 18.3954 0.507119
3607 1 63.6737 18.3954 3.35859
3608 1 65.2704 17.1303 1.93285
3609 1 66.9484 16.044 3.35859
3610 1 66.9484 16.044 0.507119
3611 1 66.4645 18.8247 3.35859
3612 1 66.4645 18.8247 0.507119
3613 1 69.7922 16.5819 3.35859
3614 1 68.123 17.7034 1.93285
3615 1 69.7922 16.5819 0.507119
3616 1 70.9488 18.2468 1.93285
3617 1 72.619 17.1175 3.35859
3618 1 72.619 17.1175 0.507119
3619 1 74.2881 15.9841 1.93285
3620 1 73.7733 18.7787 1.93285
3621 1 75.4406 17.6439 0.507119
3622 1 75.4406 17.6439 3.35859
3623 1 77.1066 16.5058 1.93285
3624 1 78.2584 18.1661 0.507119
3625 1 78.2584 18.1661 3.35859
3626 1 79.9225 17.0256 1.93285
3627 1 82.7374 17.5447 1.93285
3628 1 81.0742 18.6864 0.507119
3629 1 81.0742 18.6864 3.35859
3630 1 84.4001 16.4023 0.507119
3631 1 84.4001 16.4023 3.35859
3632 1 85.5517 18.0636 1.93285
3633 1 87.2142 16.9211 0.507119
3634 1 88.366 18.5826 1.93285
3635 1 87.2142 16.9211 3.35859
3636 1 91.6913 16.2977 1.93285
3637 1 91.1803 19.1017 1.93285
3638 1 90.0286 17.4401 0.507119
3639 1 90.0286 17.4401 3.35859
3640 1 94.5063 16.8168 1.93285
3641 1 95.6583 18.4782 0.507119
3642 1 92.8433 17.9592 0.507119
3643 1 92.8433 17.9592 3.35859
3644 1 95.6583 18.4782 3.35859
3645 1 98.9854 16.1934 0.507119
3646 1 98.9854 16.1934 3.35859
3647 1 97.3218 17.3358 1.93285
3648 1 98.4735 18.9973 0.507119
3649 1 98.4735 18.9973 3.35859
3650 1 101.801 16.712 0.507119
3651 1 100.137 17.8548 1.93285
3652 1 101.801 16.712 3.35859
3653 1 102.953 18.3741 1.93285
3654 1 104.617 17.2305 0.507119
3655 1 104.617 17.2305 3.35859
3656 1 106.28 16.0856 1.93285
3657 1 105.766 18.894 1.93285
3658 1 107.43 17.749 0.507119
3659 1 107.43 17.749 3.35859
3660 1 109.092 16.6016 1.93285
3661 1 110.238 18.2674 0.507119
3662 1 110.238 18.2674 3.35859
3663 1 111.898 17.1163 1.93285
3664 1 114.694 17.629 1.93285
3665 1 113.038 18.7851 0.507119
3666 1 113.038 18.7851 3.35859
3667 1 116.352 16.4707 0.507119
3668 1 116.352 16.4707 3.35859
3669 1 117.48 18.1384 1.93285
3670 1 119.138 16.9794 0.507119
3671 1 120.251 18.6504 1.93285
3672 1 119.138 16.9794 3.35859
3673 1 123.58 16.3371 1.93285
3674 1 121.907 17.4969 0.507119
3675 1 124.577 18.0497 0.507119
3676 1 121.907 17.4969 3.35859
3677 1 124.577 18.0497 3.35859
3678 1 126.83 17.6787 0.507119
3679 1 126.83 17.6787 3.35859
352 1 -0.0411029 20.1578 0.507119
353 1 1.88853 20.7944 1.93285
354 1 -0.0411029 20.1578 3.35859
355 1 4.42452 19.5055 1.93285
356 1 5.7021 22.063 1.93285
357 1 3.79815 21.4234 0.507119
358 1 3.79815 21.4234 3.35859
359 1 6.32163 20.1423 0.507119
360 1 8.22159 20.7854 1.93285
361 1 6.32163 20.1423 3.35859
362 1 10.7298 19.5054 1.93285
363 1 10.1242 21.4305 0.507119
364 1 10.1242 21.4305 3.35859
365 1 12.0292 22.0757 1.93285
366 1 12.6401 20.1524 0.507119
367 1 14.5516 20.7988 1.93285
368 1 12.6401 20.1524 3.35859
369 1 17.0799 19.5255 1.93285
370 1 18.9972 20.1722 0.507119
371 1 16.4642 21.4447 0.507119
372 1 18.9972 20.1722 3.35859
373 1 16.4642 21.4447 3.35859
374 1 18.3775 22.0901 1.93285
375 1 20.9142 20.8183 1.93285
376 1 23.4574 19.5493 1.93285
377 1 25.3759 20.1951 0.507119
378 1 22.8311 21.464 0.507119
379 1 25.3759 20.1951 3.35859
380 1 22.8311 21.464 3.35859
381 1 24.7477 22.1094 1.93285
382 1 27.2939 20.8406 1.93285
383 1 29.8444 19.5731 1.93285
384 1 31.7622 20.2181 0.507119
385 1 29.2114 21.4858 0.507119
386 1 31.7622 20.2181 3.35859
387 1 29.2114 21.4858 3.35859
388 1 31.1285 22.1308 1.93285
389 1 33.6794 20.8629 1.93285
390 1 36.2331 19.5957 1.93285
391 1 35.5962 21.5075 0.507119
392 1 38.1496 20.2399 0.507119
393 1 38.1496 20.2399 3.35859
394 1 35.5962 21.5075 3.35859
395 1 37.5125 22.152 1.93285
396 1 40.0656 20.884 1.93285
397 1 42.6208 19.6163 1.93285
398 1 44.5357 20.2598 0.507119
399 1 41.981 21.5279 0.507119
400 1 44.5357 20.2598 3.35859
401 1 41.981 21.5279 3.35859
402 1 43.896 22.1717 1.93285
403 1 46.45 20.9031 1.93285
404 1 48.3636 21.5465 0.507119
405 1 48.3636 21.5465 3.35859
406 1 49.0062 19.6347 1.93285
3680 1 50.9189 20.2779 3.35859
3681 1 50.9189 20.2779 0.507119
3682 1 50.2765 22.19 1.93285
3683 1 52.8307 20.9219 1.93285
3684 1 54.7419 21.568 3.35859
3685 1 54.7419 21.568 0.507119
3686 1 55.3816 19.6541 1.93285
3687 1 56.6547 22.2166 1.93285
3688 1 57.2835 20.3035 3.35859
3689 1 57.2835 20.3035 0.507119
3690 1 59.1834 20.9418 1.93285
3691 1 61.0285 21.5791 3.35859
3692 1 61.0285 21.5791 0.507119
3693 1 61.9065 19.4909 1.93285
3694 1 63.2933 21.1828 0.507119
3695 1 63.2933 21.1828 3.35859
3696 1 64.8551 20.0035 1.93285
3697 1 65.9818 21.6939 3.35859
3698 1 65.9818 21.6939 0.507119
3699 1 68.7871 22.1858 3.35859
3700 1 69.2809 19.3765 3.35859
3701 1 67.6208 20.5151 1.93285