ITEM: TIMESTEP
70097
ITEM: NUMBER OF ATOMS
17480
ITEM: BOX BOUNDS pp pp pp
2.0678623947682426e-01 1.2541321376052313e+02
6.6532326431199204e-03 2.8543346767356578e+01
2.3291545655379494e-02 5.7076708454344399e+01
ITEM: ATOMS id type x y z
1 1 1.04225 0.908301 1.34027
2 1 2.46742 2.79838 0.44329
441 1 2.75223 2.54966 2.92288
3 1 4.10515 1.19687 1.42257
4 1 5.52617 2.60391 0.0252052
444 1 5.52962 2.60148 2.91118
5 1 6.95863 1.18628 1.4499
6 1 9.8141 1.17908 1.45103
447 1 8.38527 2.60557 2.88128
8 1 12.6724 1.17819 1.45126
9 1 11.2438 2.60529 0.0248053
451 1 11.2434 2.60476 2.8779
10 1 15.5304 1.17811 1.4513
11 1 14.1015 2.60496 0.0249601
454 1 14.1014 2.6049 2.87764
12 1 18.3883 1.17811 1.4513
13 1 16.9594 2.60494 0.0249673
457 1 16.9593 2.60494 2.87763
14 1 21.2462 1.17811 1.4513
15 1 19.8172 2.60494 0.0249667
16 1 22.6751 2.60494 0.0249666
460 1 19.8172 2.60494 2.87764
461 1 22.6751 2.60494 2.87764
17 1 24.1041 1.17811 1.4513
18 1 25.533 2.60494 0.0249668
465 1 25.533 2.60494 2.87764
19 1 26.962 1.17811 1.4513
20 1 28.3909 2.60494 0.024967
468 1 28.3909 2.60494 2.87764
21 1 29.8198 1.17811 1.4513
22 1 31.2488 2.60494 0.0249671
471 1 31.2488 2.60494 2.87764
23 1 32.6777 1.17811 1.4513
24 1 34.1067 2.60494 0.0249673
474 1 34.1067 2.60494 2.87764
25 1 35.5356 1.17811 1.4513
26 1 38.3935 1.17811 1.4513
27 1 36.9646 2.60494 0.0249675
477 1 36.9646 2.60494 2.87764
28 1 41.2514 1.17811 1.4513
29 1 39.8225 2.60494 0.0249676
481 1 39.8225 2.60494 2.87764
30 1 44.1093 1.17811 1.4513
31 1 42.6803 2.60494 0.0249678
484 1 42.6803 2.60494 2.87764
32 1 46.9672 1.1781 1.45131
33 1 45.5382 2.60494 0.0249692
487 1 45.5382 2.60494 2.87764
34 1 49.8251 1.17812 1.45134
35 1 48.3961 2.60494 0.0249815
36 1 51.2539 2.60503 0.0250474
490 1 48.3961 2.60494 2.87764
491 1 51.2541 2.60497 2.87772
37 1 52.6831 1.17839 1.4514
38 1 54.1115 2.60613 0.0252952
495 1 54.1124 2.60506 2.87858
39 1 55.5411 1.18162 1.45006
498 1 56.967 2.60506 2.88612
41 1 58.3982 1.21034 1.45284
43 1 61.2038 1.227 1.54404
501 1 59.8119 2.63399 2.90018
16517 1 62.931 2.89317 2.5193
16432 1 63.3471 0.656044 0.870531
15996 1 64.6411 2.90746 0.66467
15998 1 67.4184 2.873 0.624375
16436 1 65.9394 0.821536 0.837661
16519 1 64.6473 1.17811 2.87764
16520 1 67.41 1.17811 2.87764
16518 1 65.9939 3.17338 2.62658
16000 1 70.274 2.88762 0.598028
16440 1 68.8419 0.887898 0.882342
16522 1 70.2721 1.17811 2.87764
16002 1 73.1321 2.89029 0.595816
16444 1 71.7038 0.89249 0.882003
16524 1 73.1323 1.17811 2.87764
16523 1 71.7029 3.1763 2.59317
16004 1 75.9902 2.89035 0.595528
16448 1 74.5614 0.892784 0.880891
16526 1 75.9903 1.17811 2.87764
16525 1 74.5612 3.17572 2.59246
16007 1 78.8481 2.89032 0.595499
16453 1 77.4192 0.892757 0.88077
16454 1 80.2771 0.892742 0.880766
16529 1 78.8481 1.17811 2.87764
16527 1 77.4192 3.17568 2.59237
16528 1 80.2771 3.17567 2.59237
16009 1 81.706 2.89031 0.5955
16458 1 83.135 0.892739 0.880767
16531 1 81.706 1.17811 2.87764
16530 1 83.135 3.17567 2.59237
16011 1 84.5639 2.89031 0.5955
16462 1 85.9928 0.892739 0.880767
16533 1 84.5639 1.17811 2.87764
16532 1 85.9928 3.17567 2.59237
16013 1 87.4218 2.89031 0.5955
16466 1 88.8507 0.892739 0.880767
16535 1 87.4218 1.17811 2.87764
16534 1 88.8507 3.17567 2.59237
16015 1 90.2797 2.89031 0.5955
16016 1 93.1376 2.89031 0.5955
16471 1 91.7086 0.892738 0.880767
16537 1 90.2797 1.17811 2.87764
16538 1 93.1376 1.17811 2.87764
16536 1 91.7086 3.17567 2.59237
16018 1 95.9955 2.89031 0.595499
16476 1 94.5665 0.892738 0.880767
16540 1 95.9955 1.1781 2.87764
16539 1 94.5665 3.17567 2.59237
16020 1 98.8533 2.89031 0.595499
16480 1 97.4244 0.892738 0.880766
16542 1 98.8533 1.1781 2.87764
16541 1 97.4244 3.17567 2.59237
16022 1 101.711 2.89031 0.595499
16484 1 100.282 0.892738 0.880766
16544 1 101.711 1.1781 2.87764
16543 1 100.282 3.17567 2.59237
16025 1 104.569 2.89031 0.595499
16489 1 103.14 0.892738 0.880766
16490 1 105.998 0.892737 0.880766
16547 1 104.569 1.1781 2.87764
16545 1 105.998 3.17567 2.59237
16546 1 103.14 3.17567 2.59237
16027 1 107.427 2.89031 0.595499
16494 1 108.856 0.892736 0.880767
16549 1 107.427 1.1781 2.87764
16548 1 108.856 3.17567 2.59237
16029 1 110.285 2.8903 0.5955
16498 1 111.714 0.892738 0.880765
16551 1 110.285 1.1781 2.87764
16550 1 111.714 3.17567 2.59238
16031 1 113.143 2.89032 0.595482
16502 1 114.572 0.892807 0.880716
16553 1 113.143 1.1781 2.87764
16552 1 114.572 3.17555 2.59238
16033 1 116 2.89059 0.59528
16034 1 118.857 2.89259 0.594971
16507 1 117.43 0.893393 0.880086
16555 1 116.001 1.1781 2.87764
16556 1 118.861 1.1781 2.87764
16554 1 117.429 3.17453 2.59192
16036 1 121.719 2.88963 0.59841
16512 1 120.285 0.897932 0.874035
16558 1 121.718 1.1781 2.87764
16557 1 120.291 3.17507 2.58784
16038 1 124.783 2.66109 0.1962
16516 1 123.13 0.92957 0.880066
16997 1 124.433 1.1781 2.87764
45 1 0.575067 3.19776 2.367
46 1 0.575067 4.86579 0.5356
48 1 2.46742 5.26517 2.45931
49 1 4.21962 4.03178 1.4513
506 1 5.52617 5.45964 2.8774
51 1 6.96193 4.03178 1.4513
52 1 9.8149 4.03178 1.4513
509 1 8.38708 5.45671 2.87943
54 1 12.6725 4.03178 1.4513
55 1 11.2434 5.45879 0.0247048
513 1 11.2438 5.45826 2.8778
56 1 15.5304 4.03178 1.4513
57 1 14.1014 5.45866 0.0249667
516 1 14.1015 5.45859 2.87764
58 1 18.3883 4.03178 1.4513
59 1 16.9593 5.45862 0.0249716
519 1 16.9594 5.45861 2.87764
60 1 21.2462 4.03178 1.4513
61 1 19.8172 5.45861 0.0249675
62 1 22.6751 5.45861 0.0249667
522 1 19.8172 5.45861 2.87764
523 1 22.6751 5.45861 2.87764
63 1 24.1041 4.03178 1.4513
64 1 25.533 5.45861 0.0249668
527 1 25.533 5.45861 2.87764
65 1 26.962 4.03178 1.4513
66 1 28.3909 5.45861 0.024967
530 1 28.3909 5.45861 2.87764
67 1 29.8198 4.03178 1.4513
68 1 31.2488 5.45861 0.0249671
533 1 31.2488 5.45861 2.87764
69 1 32.6777 4.03178 1.4513
70 1 34.1067 5.45861 0.0249673
536 1 34.1067 5.45861 2.87764
71 1 35.5356 4.03178 1.4513
72 1 38.3935 4.03178 1.4513
73 1 36.9646 5.45861 0.0249674
539 1 36.9646 5.45861 2.87764
74 1 41.2514 4.03178 1.4513
75 1 39.8225 5.45861 0.0249676
543 1 39.8225 5.45861 2.87764
76 1 44.1093 4.03178 1.4513
77 1 42.6803 5.45861 0.0249681
546 1 42.6803 5.45861 2.87764
78 1 46.9672 4.03178 1.4513
79 1 45.5382 5.45861 0.0249694
549 1 45.5382 5.45861 2.87764
80 1 49.8251 4.03178 1.4513
81 1 48.3961 5.45861 0.0249671
82 1 51.2541 5.45859 0.024886
552 1 48.3961 5.45862 2.87763
553 1 51.2539 5.45852 2.87756
83 1 52.6831 4.03178 1.4513
84 1 54.1124 5.4585 0.0240303
557 1 54.1115 5.45743 2.87731
85 1 55.543 4.03178 1.4513
560 1 56.9734 5.4554 2.8809
87 1 61.1153 4.03178 1.4513
88 1 58.3998 4.03178 1.4513
563 1 59.8805 5.46733 2.95919
567 1 62.464 5.34104 3.07111
16039 1 62.931 5.17038 0.383306
16562 1 64.6411 5.15609 2.23793
16563 1 67.4184 5.19055 2.27823
16045 1 65.9939 4.89018 0.276022
16521 1 68.8474 3.18135 2.59839
16566 1 70.274 5.17593 2.30458
16049 1 68.8474 4.8822 0.304215
16570 1 73.1321 5.17326 2.30679
16053 1 71.7029 4.88725 0.309433
16574 1 75.9902 5.17321 2.30708
16057 1 74.5612 4.88783 0.310147
16578 1 78.8481 5.17324 2.3071
16062 1 77.4192 4.88788 0.310233
16063 1 80.2771 4.88788 0.310235
16584 1 81.706 5.17324 2.3071
16067 1 83.135 4.88788 0.310234
16588 1 84.5639 5.17324 2.3071
16071 1 85.9928 4.88788 0.310233
16592 1 87.4218 5.17324 2.3071
16075 1 88.8507 4.88788 0.310233
16596 1 90.2797 5.17324 2.3071
16597 1 93.1376 5.17324 2.3071
16081 1 91.7086 4.88788 0.310233
16602 1 95.9955 5.17324 2.3071
16085 1 94.5665 4.88788 0.310233
16606 1 98.8533 5.17324 2.3071
16089 1 97.4244 4.88788 0.310232
16610 1 101.711 5.17324 2.3071
16093 1 100.282 4.88788 0.310232
16614 1 104.569 5.17324 2.3071
16098 1 103.14 4.88787 0.310232
16099 1 105.998 4.88787 0.310231
16620 1 107.427 5.17324 2.3071
16103 1 108.856 4.88787 0.310229
16624 1 110.285 5.17324 2.3071
16107 1 111.714 4.88788 0.310218
16628 1 113.143 5.17323 2.30712
16111 1 114.572 4.888 0.310223
16632 1 116 5.17296 2.30732
16633 1 118.857 5.17096 2.30763
16117 1 117.429 4.88902 0.310681
16638 1 121.719 5.17391 2.30419
16121 1 120.291 4.88848 0.314761
16559 1 123.198 3.23157 2.53235
16642 1 124.783 5.40246 2.7064
16125 1 123.198 4.83198 0.370255
90 1 1.04225 7.15525 1.56233
91 1 2.75223 8.25699 0.0702079
569 1 2.75857 8.31228 2.87764
92 1 4.10515 6.86668 1.48004
93 1 5.52962 8.30882 0.0585135
573 1 5.52124 8.31228 2.87764
94 1 6.95863 6.87727 1.4527
95 1 9.8141 6.88447 1.45157
96 1 8.38527 8.31291 0.0286042
576 1 8.38332 8.31228 2.87764
97 1 12.6724 6.88536 1.45134
98 1 11.2434 8.3121 0.0252262
580 1 11.2435 8.31228 2.87764
99 1 15.5304 6.88544 1.4513
100 1 14.1014 8.31223 0.0249648
583 1 14.1015 8.31228 2.87764
101 1 18.3883 6.88545 1.4513
102 1 16.9593 8.31228 0.0249605
586 1 16.9594 8.31228 2.87764
103 1 21.2462 6.88545 1.4513
104 1 19.8172 8.31228 0.0249652
105 1 22.6751 8.31228 0.0249664
589 1 19.8172 8.31228 2.87764
590 1 22.6751 8.31228 2.87764
106 1 24.1041 6.88545 1.4513
107 1 25.533 8.31228 0.0249668
594 1 25.533 8.31228 2.87764
108 1 26.962 6.88545 1.4513
109 1 28.3909 8.31228 0.024967
597 1 28.3909 8.31228 2.87764
110 1 29.8198 6.88545 1.4513
111 1 31.2488 8.31228 0.0249671
600 1 31.2488 8.31228 2.87764
112 1 32.6777 6.88545 1.4513
113 1 34.1067 8.31228 0.0249672
603 1 34.1067 8.31228 2.87764
114 1 35.5356 6.88545 1.4513
115 1 38.3935 6.88545 1.4513
116 1 36.9646 8.31228 0.0249674
606 1 36.9646 8.31228 2.87764
117 1 41.2514 6.88545 1.4513
118 1 39.8225 8.31228 0.0249676
610 1 39.8225 8.31228 2.87764
119 1 44.1093 6.88545 1.4513
120 1 42.6803 8.31228 0.0249674
613 1 42.6803 8.31228 2.87764
121 1 46.9672 6.88545 1.4513
122 1 45.5382 8.31228 0.0249663
616 1 45.5382 8.31228 2.87764
123 1 49.8251 6.88544 1.45126
124 1 48.3961 8.31228 0.0249687
125 1 51.2541 8.31231 0.02505
619 1 48.3961 8.31228 2.87764
620 1 51.254 8.31228 2.87764
126 1 52.6831 6.88516 1.45121
127 1 54.1124 8.3124 0.0259057
624 1 54.1117 8.31228 2.87764
128 1 55.5411 6.88194 1.45254
129 1 56.967 8.3124 0.0334442
627 1 56.9664 8.31228 2.87764
130 1 58.3982 6.85322 1.44977
131 1 59.8119 8.34132 0.0475093
132 1 61.2038 6.83655 1.35856
630 1 59.7178 8.31228 2.87764
133 1 61.465 9.31638 1.63297
16560 1 63.3471 7.40751 2.03207
16564 1 65.9394 7.24202 2.06494
16648 1 67.4149 9.16772 1.73575
16043 1 64.6473 6.88545 0.0249671
16044 1 67.41 6.88545 0.024967
16567 1 68.8419 7.17566 2.02026
16650 1 70.2758 9.16883 1.73915
16048 1 70.2721 6.88545 0.0249668
16571 1 71.7038 7.17106 2.0206
16652 1 73.1326 9.16856 1.73691
16052 1 73.1323 6.88545 0.0249668
16575 1 74.5614 7.17077 2.02171
16654 1 75.9903 9.16839 1.73659
16056 1 75.9903 6.88545 0.0249667
16579 1 77.4192 7.1708 2.02183
16580 1 80.2771 7.17081 2.02184
16656 1 78.8481 9.16838 1.73657
16061 1 78.8481 6.88545 0.0249666
16585 1 83.135 7.17081 2.02184
16659 1 81.706 9.16838 1.73657
16066 1 81.706 6.88545 0.0249664
16589 1 85.9928 7.17081 2.02184
16661 1 84.5639 9.16838 1.73657
16070 1 84.5639 6.88544 0.0249662
16593 1 88.8507 7.17081 2.02184
16663 1 87.4218 9.16838 1.73657
16074 1 87.4218 6.88544 0.0249661
16598 1 91.7086 7.17081 2.02184
16665 1 90.2797 9.16838 1.73657
16666 1 93.1376 9.16838 1.73657
16079 1 90.2797 6.88544 0.0249659
16080 1 93.1376 6.88544 0.0249656
16603 1 94.5665 7.17081 2.02184
16668 1 95.9955 9.16838 1.73657
16084 1 95.9955 6.88544 0.0249653
16607 1 97.4244 7.17081 2.02183
16670 1 98.8533 9.16838 1.73657
16088 1 98.8533 6.88544 0.0249651
16611 1 100.282 7.17081 2.02183
16672 1 101.711 9.16838 1.73657
16092 1 101.711 6.88544 0.0249649
16615 1 103.14 7.17081 2.02183
16616 1 105.998 7.17081 2.02183
16674 1 104.569 9.16838 1.73657
16097 1 104.569 6.88544 0.0249647
16621 1 108.856 7.17081 2.02183
16677 1 107.427 9.16838 1.73657
16102 1 107.427 6.88544 0.0249646
16625 1 111.714 7.17081 2.02184
16679 1 110.285 9.16838 1.73657
16106 1 110.285 6.88544 0.0249646
16629 1 114.572 7.17074 2.02188
16681 1 113.143 9.16835 1.73659
16110 1 113.143 6.88544 0.0249646
16634 1 117.43 7.17015 2.02251
16683 1 116.001 9.16809 1.73647
16684 1 118.859 9.16631 1.73347
16115 1 116.001 6.88544 0.0249647
16116 1 118.861 6.88544 0.0249648
16639 1 120.285 7.16562 2.02857
16686 1 121.716 9.1416 1.71841
16120 1 121.718 6.88544 0.0249648
16643 1 123.13 7.13398 2.02253
16688 1 124.522 9.07328 1.78135
16124 1 124.433 6.88544 0.0249648
134 1 1.45856 9.93465 1.58505
135 1 1.45856 12.3972 1.31755
137 1 4.05056 9.82194 1.45957
138 1 5.52617 11.167 0.0247249
139 1 4.05056 12.51 1.44303
638 1 5.52617 11.1649 2.87788
140 1 9.81508 9.73857 1.45244
141 1 6.95318 9.74205 1.45546
142 1 8.38708 11.164 0.0267558
143 1 6.95318 12.5898 1.44714
144 1 9.81508 12.5933 1.45016
643 1 8.38708 11.1679 2.87585
145 1 12.6726 9.73901 1.45137
146 1 11.2438 11.1656 0.0251257
147 1 12.6726 12.5929 1.45123
648 1 11.2438 11.1663 2.87748
148 1 15.5304 9.7391 1.45129
149 1 14.1015 11.1659 0.0249715
150 1 15.5304 12.5928 1.45131
652 1 14.1015 11.166 2.87763
151 1 18.3883 9.73911 1.4513
152 1 16.9594 11.166 0.0249648
153 1 18.3883 12.5928 1.4513
656 1 16.9594 11.1659 2.87764
154 1 21.2462 9.73912 1.4513
155 1 19.8172 11.166 0.024966
156 1 22.6751 11.166 0.0249666
157 1 21.2462 12.5928 1.4513
660 1 19.8172 11.1659 2.87764
661 1 22.6751 11.166 2.87764
158 1 24.1041 9.73912 1.4513
159 1 25.533 11.166 0.0249668
160 1 24.1041 12.5928 1.4513
666 1 25.533 11.166 2.87764
161 1 26.962 9.73912 1.4513
162 1 28.3909 11.166 0.024967
163 1 26.962 12.5928 1.4513
670 1 28.3909 11.166 2.87764
164 1 29.8198 9.73912 1.4513
165 1 31.2488 11.166 0.0249671
166 1 29.8198 12.5928 1.4513
674 1 31.2488 11.166 2.87764
167 1 32.6777 9.73912 1.4513
168 1 34.1067 11.166 0.0249673
169 1 32.6777 12.5928 1.4513
678 1 34.1067 11.166 2.87764
170 1 38.3935 9.73912 1.4513
171 1 35.5356 9.73912 1.4513
172 1 36.9646 11.166 0.0249675
173 1 35.5356 12.5928 1.4513
174 1 38.3935 12.5928 1.4513
683 1 36.9646 11.166 2.87764
175 1 41.2514 9.73912 1.4513
176 1 39.8225 11.166 0.0249677
177 1 41.2514 12.5928 1.4513
688 1 39.8225 11.166 2.87764
178 1 44.1093 9.73912 1.4513
179 1 42.6803 11.166 0.0249678
180 1 44.1093 12.5928 1.4513
692 1 42.6803 11.166 2.87764
181 1 46.9672 9.73912 1.4513
182 1 45.5382 11.166 0.0249665
183 1 46.9672 12.5928 1.45131
696 1 45.5382 11.1659 2.87764
184 1 49.825 9.73912 1.45132
185 1 48.3961 11.166 0.0249543
186 1 51.2539 11.1659 0.0248885
187 1 49.825 12.5928 1.45128
700 1 48.3961 11.1659 2.87765
701 1 51.2539 11.166 2.87772
188 1 52.6827 9.73921 1.45165
189 1 54.1115 11.1648 0.0246407
190 1 52.6827 12.5927 1.45096
706 1 54.1115 11.1671 2.87797
191 1 55.5397 9.74063 1.45309
192 1 56.9734 11.1627 0.028231
193 1 55.5397 12.5913 1.44951
710 1 56.9734 11.1692 2.87438
194 1 58.4013 9.74029 1.44859
195 1 59.8805 11.1747 0.106517
196 1 58.4013 12.5916 1.45401
713 1 59.8805 11.1572 2.79609
16647 1 64.3562 9.57394 1.51802
197 1 62.464 11.0484 0.218439
198 1 62.464 11.2835 2.68417
16693 1 66.1083 11.166 1.4513
16696 1 68.8507 11.166 1.4513
16699 1 71.7037 11.1659 1.4513
16702 1 74.5613 11.1659 1.4513
16705 1 77.4192 11.1659 1.4513
16706 1 80.2771 11.1659 1.4513
16710 1 83.135 11.1659 1.4513
16713 1 85.9928 11.1659 1.4513
16716 1 88.8507 11.1659 1.4513
16719 1 91.7086 11.1659 1.4513
16723 1 94.5665 11.1659 1.4513
16726 1 97.4244 11.1659 1.4513
16729 1 100.282 11.1659 1.4513
16732 1 103.14 11.1659 1.4513
16733 1 105.998 11.1659 1.4513
16737 1 108.856 11.1659 1.4513
16740 1 111.714 11.1659 1.4513
16743 1 114.572 11.1659 1.4513
16746 1 117.429 11.1659 1.4513
16750 1 120.284 11.1659 1.4513
16754 1 123.035 11.1659 1.4513
16756 1 124.783 11.2221 3.04887
199 1 1.04225 15.1766 1.34027
200 1 2.75857 14.0196 0.0249649
719 1 2.75223 14.0749 2.83239
201 1 4.10515 15.4652 1.42257
202 1 5.52124 14.0196 0.024965
723 1 5.52962 14.0231 2.84409
203 1 6.95863 15.4546 1.4499
204 1 9.8141 15.4474 1.45103
205 1 8.38332 14.0196 0.0249653
726 1 8.38527 14.019 2.874
206 1 12.6724 15.4465 1.45126
207 1 11.2435 14.0196 0.0249655
730 1 11.2434 14.0198 2.87738
208 1 15.5304 15.4465 1.4513
209 1 14.1015 14.0196 0.0249658
733 1 14.1014 14.0197 2.87764
210 1 18.3883 15.4465 1.4513
211 1 16.9594 14.0196 0.0249661
736 1 16.9593 14.0196 2.87764
212 1 21.2462 15.4465 1.4513
213 1 19.8172 14.0196 0.0249664
214 1 22.6751 14.0196 0.0249666
739 1 19.8172 14.0196 2.87764
740 1 22.6751 14.0196 2.87764
215 1 24.1041 15.4465 1.4513
216 1 25.533 14.0196 0.0249668
744 1 25.533 14.0196 2.87764
217 1 26.962 15.4465 1.4513
218 1 28.3909 14.0196 0.024967
747 1 28.3909 14.0196 2.87764
219 1 29.8198 15.4465 1.4513
220 1 31.2488 14.0196 0.0249672
750 1 31.2488 14.0196 2.87764
221 1 32.6777 15.4465 1.4513
222 1 34.1067 14.0196 0.0249673
753 1 34.1067 14.0196 2.87764
223 1 35.5356 15.4465 1.4513
224 1 38.3935 15.4465 1.4513
225 1 36.9646 14.0196 0.0249675
756 1 36.9646 14.0196 2.87764
226 1 41.2514 15.4465 1.4513
227 1 39.8225 14.0196 0.0249677
760 1 39.8225 14.0196 2.87764
228 1 44.1093 15.4465 1.4513
229 1 42.6803 14.0196 0.0249678
763 1 42.6803 14.0196 2.87764
230 1 46.9672 15.4465 1.45131
231 1 45.5382 14.0196 0.0249679
766 1 45.5382 14.0196 2.87764
232 1 49.8251 15.4465 1.45134
233 1 48.3961 14.0196 0.0249679
234 1 51.254 14.0196 0.0249679
769 1 48.3961 14.0196 2.87764
770 1 51.2541 14.0196 2.87756
235 1 52.6831 15.4467 1.4514
236 1 54.1117 14.0196 0.0249679
774 1 54.1124 14.0195 2.8767
237 1 55.5411 15.45 1.45006
238 1 56.9664 14.0196 0.0249678
777 1 56.967 14.0195 2.86916
239 1 58.3982 15.4787 1.45284
240 1 59.7178 14.0196 0.0249676
241 1 61.2038 15.4953 1.54404
780 1 59.8119 13.9906 2.8551
16690 1 64.3562 12.758 1.38458
242 1 61.465 13.0155 1.26963
16149 1 63.3471 14.9244 0.870531
16153 1 67.4149 13.1642 1.16685
16216 1 65.9394 15.0899 0.837661
16694 1 65.9939 13.4512 3.12869
16757 1 64.6473 15.4465 2.87764
16758 1 67.41 15.4465 2.87764
16156 1 70.2758 13.1631 1.16346
16220 1 68.8419 15.1562 0.882342
16697 1 68.8474 13.4432 3.15689
16759 1 70.2721 15.4465 2.87764
16159 1 73.1326 13.1633 1.1657
16223 1 71.7038 15.1608 0.882003
16700 1 71.7029 13.4483 3.1621
16760 1 73.1323 15.4465 2.87764
16162 1 75.9903 13.1635 1.16602
16226 1 74.5614 15.1611 0.880891
16703 1 74.5612 13.4488 3.16282
16761 1 75.9903 15.4465 2.87764
16166 1 78.8481 13.1635 1.16604
16230 1 77.4192 15.1611 0.88077
16231 1 80.2771 15.1611 0.880766
16707 1 77.4192 13.4489 3.1629
16708 1 80.2771 13.4489 3.16291
16762 1 78.8481 15.4465 2.87764
16169 1 81.706 13.1635 1.16604
16234 1 83.135 15.1611 0.880767
16711 1 83.135 13.4489 3.1629
16763 1 81.706 15.4465 2.87764
16172 1 84.5639 13.1635 1.16603
16237 1 85.9928 15.1611 0.880767
16714 1 85.9928 13.4489 3.1629
16764 1 84.5639 15.4465 2.87764
16175 1 87.4218 13.1635 1.16603
16240 1 88.8507 15.1611 0.880767
16717 1 88.8507 13.4489 3.1629
16765 1 87.4218 15.4465 2.87764
16179 1 90.2797 13.1635 1.16603
16180 1 93.1376 13.1635 1.16603
16244 1 91.7086 15.1611 0.880767
16720 1 91.7086 13.4489 3.1629
16766 1 90.2797 15.4465 2.87764
16767 1 93.1376 15.4465 2.87764
16183 1 95.9955 13.1635 1.16603
16247 1 94.5665 15.1611 0.880767
16724 1 94.5665 13.4489 3.1629
16768 1 95.9955 15.4465 2.87764
16186 1 98.8533 13.1635 1.16603
16250 1 97.4244 15.1611 0.880766
16727 1 97.4244 13.4489 3.1629
16769 1 98.8533 15.4465 2.87764
16189 1 101.711 13.1635 1.16603
16253 1 100.282 15.1611 0.880766
16730 1 100.282 13.4489 3.1629
16770 1 101.711 15.4465 2.87764
16193 1 104.569 13.1635 1.16603
16257 1 103.14 15.1611 0.880766
16258 1 105.998 15.1611 0.880766
16734 1 103.14 13.4489 3.1629
16735 1 105.998 13.4489 3.1629
16771 1 104.569 15.4465 2.87764
16196 1 107.427 13.1635 1.16603
16261 1 108.856 15.1611 0.880767
16738 1 108.856 13.4489 3.1629
16772 1 107.427 15.4465 2.87764
16199 1 110.285 13.1635 1.16603
16264 1 111.714 15.1611 0.880765
16741 1 111.714 13.4489 3.16289
16773 1 110.285 15.4465 2.87764
16202 1 113.143 13.1635 1.16601
16267 1 114.572 15.1612 0.880716
16744 1 114.572 13.449 3.16289
16774 1 113.143 15.4465 2.87764
16206 1 118.859 13.1656 1.16913
16207 1 116.001 13.1638 1.16613
16271 1 117.43 15.1617 0.880086
16747 1 117.429 13.45 3.16335
16775 1 116.001 15.4465 2.87764
16776 1 118.861 15.4465 2.87764
16210 1 121.716 13.1903 1.18419
16274 1 120.285 15.1663 0.874036
16751 1 120.291 13.4495 3.16743
16777 1 121.718 15.4465 2.87764
16277 1 123.13 15.1979 0.880066
16753 1 124.522 13.2586 1.12125
16778 1 124.433 15.4465 2.87764
243 1 2.46742 17.0667 0.44329
244 1 0.575067 17.4661 2.367
784 1 2.75223 16.818 2.92288
245 1 4.21962 18.3001 1.4513
246 1 5.52617 16.8723 0.0252052
787 1 5.52962 16.8698 2.91118
247 1 6.96193 18.3001 1.4513
248 1 9.8149 18.3001 1.4513
790 1 8.38527 16.8739 2.88128
250 1 12.6725 18.3001 1.4513
251 1 11.2438 16.8736 0.0248053
794 1 11.2434 16.8731 2.8779
252 1 15.5304 18.3001 1.4513
253 1 14.1015 16.8733 0.0249601
797 1 14.1014 16.8732 2.87764
254 1 18.3883 18.3001 1.4513
255 1 16.9594 16.8733 0.0249673
800 1 16.9593 16.8733 2.87763
256 1 21.2462 18.3001 1.4513
257 1 19.8172 16.8733 0.0249667
258 1 22.6751 16.8733 0.0249666
803 1 19.8172 16.8733 2.87764
804 1 22.6751 16.8733 2.87764
259 1 24.1041 18.3001 1.4513
260 1 25.533 16.8733 0.0249668
808 1 25.533 16.8733 2.87764
261 1 26.962 18.3001 1.4513
262 1 28.3909 16.8733 0.024967
811 1 28.3909 16.8733 2.87764
263 1 29.8198 18.3001 1.4513
264 1 31.2488 16.8733 0.0249671
814 1 31.2488 16.8733 2.87764
265 1 32.6777 18.3001 1.4513
266 1 34.1067 16.8733 0.0249673
817 1 34.1067 16.8733 2.87764
267 1 35.5356 18.3001 1.4513
268 1 38.3935 18.3001 1.4513
269 1 36.9646 16.8733 0.0249675
820 1 36.9646 16.8733 2.87764
270 1 41.2514 18.3001 1.4513
271 1 39.8225 16.8733 0.0249676
824 1 39.8225 16.8733 2.87764
272 1 44.1093 18.3001 1.4513
273 1 42.6803 16.8733 0.0249678
827 1 42.6803 16.8733 2.87764
274 1 46.9672 18.3001 1.4513
275 1 45.5382 16.8733 0.0249692
830 1 45.5382 16.8733 2.87764
276 1 49.8251 18.3001 1.4513
277 1 48.3961 16.8733 0.0249815
278 1 51.2539 16.8734 0.0250474
833 1 48.3961 16.8733 2.87764
834 1 51.2541 16.8733 2.87772
279 1 52.6831 18.3001 1.4513
280 1 54.1115 16.8745 0.0252952
838 1 54.1124 16.8734 2.87858
281 1 55.543 18.3001 1.4513
841 1 56.967 16.8734 2.88612
283 1 58.3998 18.3001 1.4513
284 1 61.1153 18.3001 1.4513
844 1 59.8119 16.9023 2.90018
16779 1 62.931 17.1615 2.5193
16213 1 64.6411 17.1758 0.66467
16283 1 67.4184 17.1413 0.624375
16781 1 65.9939 17.4417 2.62658
16285 1 70.274 17.156 0.598028
16784 1 68.8474 17.4497 2.59839
16288 1 73.1321 17.1586 0.595816
16787 1 71.7029 17.4446 2.59317
16291 1 75.9902 17.1587 0.595528
16790 1 74.5612 17.4441 2.59246
16294 1 78.8481 17.1587 0.595499
16793 1 77.4192 17.444 2.59237
16794 1 80.2771 17.444 2.59237
16298 1 81.706 17.1587 0.5955
16798 1 83.135 17.444 2.59237
16301 1 84.5639 17.1587 0.5955
16801 1 85.9928 17.444 2.59237
16304 1 87.4218 17.1587 0.5955
16804 1 88.8507 17.444 2.59237
16308 1 90.2797 17.1587 0.5955
16309 1 93.1376 17.1587 0.5955
16807 1 91.7086 17.444 2.59237
16312 1 95.9955 17.1587 0.5955
16811 1 94.5665 17.444 2.59237
16315 1 98.8533 17.1587 0.595499
16814 1 97.4244 17.444 2.59237
16318 1 101.711 17.1587 0.595499
16817 1 100.282 17.444 2.59237
16321 1 104.569 17.1587 0.595499
16820 1 103.14 17.444 2.59237
16821 1 105.998 17.444 2.59237
16325 1 107.427 17.1587 0.595499
16825 1 108.856 17.444 2.59237
16328 1 110.285 17.1587 0.5955
16828 1 111.714 17.444 2.59238
16331 1 113.143 17.1587 0.595482
16831 1 114.572 17.4439 2.59238
16335 1 116 17.1589 0.59528
16336 1 118.857 17.1609 0.594971
16834 1 117.429 17.4429 2.59192
16339 1 121.719 17.158 0.59841
16838 1 120.291 17.4434 2.58784
16342 1 124.783 16.9294 0.1962
16841 1 123.198 17.4999 2.53235
287 1 0.575067 19.1341 0.535601
288 1 1.04225 21.4236 1.56233
290 1 2.46742 19.5335 2.45931
291 1 4.10515 21.135 1.48004
849 1 5.52617 19.728 2.8774
293 1 6.95863 21.1456 1.4527
294 1 9.8141 21.1528 1.45157
852 1 8.38708 19.7251 2.87943
296 1 12.6724 21.1537 1.45134
297 1 11.2434 19.7271 0.0247048
856 1 11.2438 19.7266 2.8778
298 1 15.5304 21.1538 1.4513
299 1 14.1014 19.727 0.0249667
859 1 14.1015 19.7269 2.87764
300 1 18.3883 21.1538 1.4513
301 1 16.9593 19.727 0.0249716
862 1 16.9594 19.727 2.87764
302 1 21.2462 21.1538 1.4513
303 1 19.8172 19.727 0.0249675
304 1 22.6751 19.727 0.0249667
865 1 19.8172 19.727 2.87764
866 1 22.6751 19.727 2.87764
305 1 24.1041 21.1538 1.4513
306 1 25.533 19.727 0.0249668
870 1 25.533 19.727 2.87764
307 1 26.962 21.1538 1.4513
308 1 28.3909 19.727 0.024967
873 1 28.3909 19.727 2.87764
309 1 29.8198 21.1538 1.4513
310 1 31.2488 19.727 0.0249671
876 1 31.2488 19.727 2.87764
311 1 32.6777 21.1538 1.4513
312 1 34.1067 19.727 0.0249672
879 1 34.1067 19.727 2.87764
313 1 35.5356 21.1538 1.4513
314 1 38.3935 21.1538 1.4513
315 1 36.9646 19.727 0.0249674
882 1 36.9646 19.727 2.87764
316 1 41.2514 21.1538 1.4513
317 1 39.8225 19.727 0.0249676
886 1 39.8225 19.727 2.87764
318 1 44.1093 21.1538 1.4513
319 1 42.6803 19.727 0.0249681
889 1 42.6803 19.727 2.87764
320 1 46.9672 21.1538 1.4513
321 1 45.5382 19.727 0.0249694
892 1 45.5382 19.727 2.87764
322 1 49.8251 21.1538 1.45126
323 1 51.2541 19.7269 0.024886
324 1 48.3961 19.727 0.0249671
895 1 51.2539 19.7269 2.87756
896 1 48.3961 19.727 2.87763
325 1 52.6831 21.1535 1.45121
326 1 54.1124 19.7268 0.0240302
900 1 54.1115 19.7258 2.87731
327 1 55.5411 21.1503 1.45254
903 1 56.9734 19.7238 2.8809
330 1 58.3982 21.1216 1.44977
331 1 61.2038 21.1049 1.35856
906 1 59.8805 19.7357 2.95919
16844 1 63.3471 21.6759 2.03207
910 1 62.464 19.6094 3.07111
16279 1 62.931 19.4387 0.383306
16782 1 64.6411 19.4244 2.23793
16783 1 67.4184 19.4589 2.27823
16846 1 65.9394 21.5104 2.06494
16282 1 65.9939 19.1585 0.276022
16345 1 64.6473 21.1538 0.0249671
16346 1 67.41 21.1538 0.024967
16785 1 70.274 19.4443 2.30458
16848 1 68.8419 21.444 2.02026
16286 1 68.8474 19.1505 0.304215
16349 1 70.2721 21.1538 0.0249669
16788 1 73.1321 19.4416 2.30679
16850 1 71.7038 21.4394 2.0206
16289 1 71.7029 19.1556 0.309433
16352 1 73.1323 21.1538 0.0249668
16791 1 75.9902 19.4416 2.30708
16852 1 74.5614 21.4391 2.02171
16292 1 74.5612 19.1562 0.310147
16355 1 75.9903 21.1538 0.0249667
16795 1 78.8481 19.4416 2.3071
16854 1 77.4192 21.4391 2.02183
16855 1 80.2771 21.4392 2.02184
16295 1 80.2771 19.1562 0.310235
16296 1 77.4192 19.1562 0.310233
16359 1 78.8481 21.1538 0.0249666
16799 1 81.706 19.4416 2.3071
16857 1 83.135 21.4392 2.02184
16299 1 83.135 19.1562 0.310234
16363 1 81.706 21.1538 0.0249664
16802 1 84.5639 19.4416 2.3071
16859 1 85.9928 21.4392 2.02184
16302 1 85.9928 19.1562 0.310233
16366 1 84.5639 21.1538 0.0249662
16805 1 87.4218 19.4416 2.3071
16861 1 88.8507 21.4392 2.02184
16305 1 88.8507 19.1562 0.310233
16369 1 87.4218 21.1538 0.024966
16808 1 90.2797 19.4416 2.3071
16809 1 93.1376 19.4416 2.3071
16863 1 91.7086 21.4392 2.02184
16310 1 91.7086 19.1562 0.310233
16372 1 90.2797 21.1538 0.0249658
16373 1 93.1376 21.1538 0.0249656
16812 1 95.9955 19.4416 2.3071
16866 1 94.5665 21.4392 2.02184
16313 1 94.5665 19.1562 0.310233
16376 1 95.9955 21.1538 0.0249653
16815 1 98.8533 19.4416 2.3071
16868 1 97.4244 21.4392 2.02183
16316 1 97.4244 19.1562 0.310232
16379 1 98.8533 21.1538 0.0249651
16818 1 101.711 19.4416 2.3071
16870 1 100.282 21.4392 2.02183
16319 1 100.282 19.1562 0.310232
16382 1 101.711 21.1538 0.0249649
16822 1 104.569 19.4416 2.3071
16872 1 103.14 21.4392 2.02183
16873 1 105.998 21.4392 2.02183
16322 1 103.14 19.1562 0.310232
16323 1 105.998 19.1562 0.310232
16386 1 104.569 21.1538 0.0249647
16826 1 107.427 19.4416 2.3071
16875 1 108.856 21.4392 2.02183
16326 1 108.856 19.1562 0.310229
16390 1 107.427 21.1538 0.0249646
16829 1 110.285 19.4416 2.3071
16877 1 111.714 21.4392 2.02184
16329 1 111.714 19.1562 0.310218
16393 1 110.285 21.1538 0.0249646
16832 1 113.143 19.4416 2.30712
16879 1 114.572 21.4391 2.02188
16332 1 114.572 19.1563 0.310223
16396 1 113.143 21.1538 0.0249646
16835 1 116 19.4413 2.30732
16836 1 118.857 19.4393 2.30763
16881 1 117.43 21.4385 2.02251
16337 1 117.429 19.1574 0.310681
16399 1 116.001 21.1538 0.0249647
16400 1 118.861 21.1538 0.0249648
16839 1 121.719 19.4423 2.30419
16884 1 120.285 21.434 2.02857
16340 1 120.291 19.1568 0.314761
16403 1 121.718 21.1538 0.0249648
16842 1 124.783 19.6708 2.7064
16886 1 123.13 21.4023 2.02253
16343 1 123.198 19.1003 0.370255
16406 1 124.433 21.1538 0.0249648
332 1 2.75223 22.5253 0.0702079
333 1 1.45856 24.203 1.58505
912 1 2.75857 22.5806 2.87764
335 1 4.05056 24.0903 1.45957
336 1 5.52962 22.5772 0.0585135
915 1 5.52124 22.5806 2.87764
337 1 6.95318 24.0104 1.45546
338 1 9.81508 24.0069 1.45244
339 1 8.38527 22.5813 0.0286043
918 1 8.38332 22.5806 2.87764
340 1 12.6726 24.0074 1.45137
341 1 11.2434 22.5804 0.0252262
922 1 11.2435 22.5806 2.87764
342 1 15.5304 24.0074 1.45129
343 1 14.1014 22.5806 0.0249648
925 1 14.1015 22.5806 2.87764
344 1 18.3883 24.0075 1.4513
345 1 16.9593 22.5806 0.0249605
928 1 16.9594 22.5806 2.87764
346 1 21.2462 24.0075 1.4513
347 1 19.8172 22.5806 0.0249652
348 1 22.6751 22.5806 0.0249664
931 1 19.8172 22.5806 2.87764
932 1 22.6751 22.5806 2.87764
349 1 24.1041 24.0075 1.4513
350 1 25.533 22.5806 0.0249667
936 1 25.533 22.5806 2.87764
351 1 26.962 24.0075 1.4513
352 1 28.3909 22.5806 0.024967
939 1 28.3909 22.5806 2.87764
353 1 29.8198 24.0075 1.4513
354 1 31.2488 22.5806 0.0249671
942 1 31.2488 22.5806 2.87764
355 1 32.6777 24.0075 1.4513
356 1 34.1067 22.5806 0.0249672
945 1 34.1067 22.5806 2.87764
357 1 35.5356 24.0075 1.4513
358 1 38.3935 24.0075 1.4513
359 1 36.9646 22.5806 0.0249674
948 1 36.9646 22.5806 2.87764
360 1 41.2514 24.0075 1.4513
361 1 39.8225 22.5806 0.0249676
952 1 39.8225 22.5806 2.87764
362 1 44.1093 24.0075 1.4513
363 1 42.6803 22.5806 0.0249674
955 1 42.6803 22.5806 2.87764
364 1 46.9672 24.0075 1.4513
365 1 45.5382 22.5806 0.0249663
958 1 45.5382 22.5806 2.87764
366 1 49.825 24.0075 1.45132
367 1 48.3961 22.5806 0.0249687
368 1 51.2541 22.5807 0.02505
961 1 48.3961 22.5806 2.87764
962 1 51.254 22.5806 2.87764
369 1 52.6827 24.0076 1.45165
370 1 54.1124 22.5807 0.0259057
966 1 54.1117 22.5806 2.87764
371 1 55.5397 24.009 1.45309
372 1 56.967 22.5807 0.0334442
969 1 56.9664 22.5806 2.87764
373 1 58.4013 24.0086 1.44859
374 1 59.8119 22.6097 0.0475093
972 1 59.7178 22.5806 2.87764
375 1 61.465 23.5847 1.63297
376 1 62.464 25.3167 0.218439
16890 1 64.3562 23.8423 1.51802
16892 1 67.4149 23.4361 1.73575
16896 1 70.2758 23.4372 1.73915