ITEM: TIMESTEP
6284
ITEM: NUMBER OF ATOMS
71781
ITEM: BOX BOUNDS pp pp pp
6.5839428238650299e-02 1.4828431257176132e+02
2.4189619927585497e-02 6.9908742380072397e+01
-2.6260638989333805e-02 8.0777854638989325e+01
ITEM: ATOMS id type x y z
1 1 0.592621 0.983072 1.88675
2 1 3.29235 0.961766 1.90106
3 1 5.80392 0.949149 1.90039
4 1 8.29178 0.938275 1.89642
5 1 10.7707 0.92576 1.89179
6 1 13.2462 0.912803 1.88653
7 1 15.7204 0.899669 1.88095
8 1 18.194 0.886439 1.8752
9 1 20.6673 0.873145 1.86936
10 1 23.1406 0.859803 1.86348
11 1 24.7892 3.18033 1.85951
12 1 22.316 3.19368 1.8654
13 1 25.6138 0.846422 1.85758
14 1 28.087 0.833011 1.85167
15 1 27.2624 3.16693 1.85361
16 1 30.5601 0.819576 1.84576
17 1 29.7355 3.1535 1.84771
18 1 33.0333 0.80612 1.83986
19 1 34.6818 3.12659 1.83593
20 1 32.2087 3.14005 1.84182
21 1 35.5065 0.792647 1.83397
22 1 37.1549 3.11311 1.83006
23 1 37.9796 0.779161 1.82808
24 1 40.4528 0.765661 1.82221
25 1 39.6281 3.09962 1.8242
26 1 42.9259 0.752148 1.81636
27 1 42.1012 3.08612 1.81836
28 1 45.3991 0.738619 1.81054
29 1 47.0472 3.0591 1.80677
30 1 44.5742 3.07261 1.81255
31 1 47.8721 0.725067 1.80474
32 1 50.345 0.711482 1.79898
33 1 49.5202 3.04557 1.80103
34 1 52.8178 0.697845 1.79328
35 1 51.993 3.03203 1.79535
36 1 54.4656 3.01847 1.78973
37 1 55.2903 0.684123 1.78764
38 1 57.7623 0.67026 1.78209
39 1 56.938 3.00486 1.78421
40 1 59.4103 2.99121 1.77879
41 1 60.2335 0.656164 1.77662
42 1 61.8829 2.97753 1.77352
43 1 62.7028 0.641673 1.77125
44 1 64.3575 2.96392 1.7684
45 1 65.1677 0.626549 1.76592
46 1 66.8392 2.95092 1.76328
47 1 67.6215 0.610759 1.7607
48 1 69.3439 2.93996 1.75973
49 1 70.0436 0.597769 1.75277
50 1 72.0579 2.89616 1.75198
51 1 72.3659 0.484996 1.77599
35361 1 74.4952 1.22302 1.75268
35362 1 78.6742 2.58697 0.841314
35363 1 78.2112 0.510112 2.04919
35364 1 76.4889 2.202 2.44947
35365 1 76.3162 1.607 -0.009432
35366 1 80.3574 1.44578 2.8704
35367 1 80.5195 0.970138 0.449382
35368 1 82.6689 1.90088 1.25353
35369 1 84.4889 0.266748 0.847252
35370 1 84.8142 2.82882 2.05686
35371 1 86.6315 1.19193 1.65015
35372 1 91.0867 2.57368 0.833314
35373 1 88.776 2.11593 2.45346
35374 1 90.5898 0.479077 2.04642
35375 1 88.9433 1.64845 0.0296677
35376 1 92.7341 1.40384 2.85022
35377 1 92.8997 0.937192 0.426112
35378 1 96.8565 0.226236 0.822716
35379 1 95.0434 1.86247 1.22999
35380 1 97.187 2.78779 2.03399
35381 1 99.0001 1.15163 1.6267
35382 1 103.452 2.53628 0.810392
35383 1 102.957 0.440965 2.02338
35384 1 101.144 2.07707 2.43075
35385 1 101.308 1.61077 0.00632303
35386 1 105.265 0.900172 0.402997
35387 1 105.101 1.36645 2.82746
35388 1 107.409 1.82569 1.20708
35389 1 109.552 2.7512 2.01118
35390 1 109.222 0.18961 0.799653
35391 1 111.366 1.11513 1.60374
35392 1 113.51 2.04064 2.40783
35393 1 115.818 2.49987 0.78745
35394 1 115.323 0.404579 2.00037
35395 1 113.674 1.57437 -0.0166385
35396 1 117.631 0.863813 0.379984
35397 1 119.775 1.78931 1.18405
35398 1 117.467 1.33009 2.80444
35399 1 121.919 2.7148 1.98811
35400 1 121.589 0.15327 0.776565
35401 1 121.424 0.61955 3.20101
35402 1 123.732 1.07877 1.5806
35403 1 125.876 2.00426 2.38462
35404 1 124.227 3.17401 0.367699
35405 1 128.185 2.46347 0.76417
35406 1 127.69 0.368235 1.97706
35407 1 128.02 2.92976 3.18861
35408 1 129.998 0.8275 0.356618
35409 1 132.142 1.75307 1.16056
35410 1 129.834 1.29372 2.78101
35411 1 134.286 2.67866 1.96448
35412 1 133.956 0.117257 0.753004
35413 1 133.791 0.58308 3.17713
35414 1 136.101 1.04314 1.55706
35415 1 138.246 1.97072 2.36152
35416 1 136.596 3.13858 0.344482
35417 1 140.55 2.41906 0.736857
35418 1 140.056 0.336546 1.95507
35419 1 140.395 2.90128 3.16628
35420 1 142.357 0.765805 0.31352
35421 1 144.408 1.69784 1.10932
35422 1 142.204 1.26894 2.76227
35423 1 146.419 2.55123 1.88548
35424 1 146.223 0.137911 0.726048
35425 1 146.181 0.560028 3.13575
52 1 0.276729 3.39107 1.94684
53 1 2.58784 3.30082 1.92629
54 1 1.42742 5.66823 1.89926
55 1 5.01906 3.28116 1.90601
56 1 4.13239 5.613 1.9127
57 1 7.4791 3.2714 1.90022
58 1 6.63869 5.60459 1.90502
59 1 9.12207 5.59295 1.8979
60 1 12.4226 3.24631 1.88871
61 1 9.94954 3.25905 1.89442
62 1 11.5982 5.58033 1.89145
63 1 14.8961 3.23334 1.88295
64 1 14.0722 5.56735 1.88528
65 1 17.3695 3.22022 1.87714
66 1 16.5455 5.55419 1.87925
67 1 19.8428 3.20699 1.87128
68 1 19.0186 5.54094 1.87329
69 1 21.4917 5.52763 1.86735
70 1 23.9648 5.51427 1.86144
71 1 26.4379 5.50087 1.85553
72 1 28.911 5.48745 1.84963
73 1 31.3841 5.474 1.84374
74 1 33.8572 5.46054 1.83786
75 1 36.3303 5.44707 1.83199
76 1 38.8034 5.43359 1.82614
77 1 41.2765 5.4201 1.8203
78 1 43.7496 5.40662 1.81449
79 1 46.2226 5.39314 1.80871
80 1 48.6956 5.37966 1.80297
81 1 51.1685 5.3662 1.79729
82 1 53.6412 5.35275 1.79167
83 1 56.1138 5.33931 1.78616
84 1 58.586 5.32588 1.7808
85 1 61.0575 5.3124 1.77572
86 1 63.5273 5.29871 1.77123
87 1 65.9925 5.28421 1.76828
88 1 68.4455 5.26854 1.76984
89 1 70.8702 5.20976 1.79487
35426 1 73.2153 5.17755 1.69209
35427 1 75.2851 6.0419 1.65818
35428 1 74.7554 3.43452 0.67221
35429 1 74.6795 3.77562 3.09409
35430 1 76.943 4.25931 1.26502
35431 1 77.4177 6.3257 0.0183043
35432 1 80.8453 3.5311 1.65539
35433 1 79.0643 5.18583 2.06635
35434 1 81.1852 6.11365 2.87355
35435 1 81.3552 5.62679 0.446861
35436 1 82.9946 4.46599 2.46239
35437 1 83.1729 3.99426 0.0413076
35438 1 87.1306 3.28548 0.437019
35439 1 85.3159 4.92155 0.843966
35440 1 87.4596 5.84657 1.64732
35441 1 86.9608 3.75241 2.86013
35442 1 89.2736 4.2103 1.24045
35443 1 91.4171 5.13506 2.04426
35444 1 89.7708 6.30518 0.0273738
35445 1 93.2303 3.49877 1.63717
35446 1 93.5606 6.0601 2.84831
35447 1 93.7262 5.59398 0.424114
35448 1 97.6822 4.88312 0.820953
35449 1 95.3738 4.42397 2.4412
35450 1 95.539 3.95769 0.0169111
35451 1 99.4952 3.24693 0.413665
35452 1 99.8254 5.80858 1.62506
35453 1 99.3305 3.71319 2.83807
35454 1 101.639 4.17242 1.21775
35455 1 103.782 5.09792 2.02187
35456 1 102.133 6.26787 0.00472969
35457 1 106.09 5.55719 0.401515
35458 1 105.595 3.46179 1.61449
35459 1 105.925 6.02341 2.826
35460 1 110.047 4.84656 0.798237
35461 1 107.739 4.3873 2.4186
35462 1 107.903 3.92105 -0.00587798
35463 1 111.86 3.21045 0.390806
35464 1 112.19 5.77205 1.60235
35465 1 111.696 3.67671 2.81528
35466 1 114.004 4.13595 1.19491
35467 1 116.148 5.06144 1.999
35468 1 114.498 6.23128 -0.0180152
35469 1 118.456 5.52066 0.378622
35470 1 118.291 5.98692 2.80309
35471 1 117.961 3.42537 1.59153
35472 1 122.413 4.81006 0.775203
35473 1 120.105 4.35086 2.39561
35474 1 122.249 5.27634 3.19966
35475 1 124.557 5.73554 1.57924
35476 1 124.062 3.64029 2.79215
35477 1 126.371 4.09949 1.17171
35478 1 128.515 5.02498 1.9757
35479 1 130.328 3.38895 1.56812
35480 1 130.823 5.48415 0.355175
35481 1 130.658 5.95046 2.77965
35482 1 132.472 4.3144 2.37203
35483 1 134.781 4.77379 0.751472
35484 1 134.616 5.23977 3.17582
35485 1 138.744 4.06383 1.14868
35486 1 136.926 5.69878 1.55491
35487 1 136.43 3.60453 2.76833
35488 1 140.891 5.00019 1.95646
35489 1 142.667 3.35347 1.54473
35490 1 143.155 5.43088 0.327184
35491 1 144.787 4.27689 2.35413
35492 1 143.062 5.93944 2.77388
35493 1 147.037 4.77588 0.533182
35494 1 146.969 5.10808 2.97753
35495 1 145.24 6.33626 1.17342
90 1 1.12661 8.07377 1.89577
91 1 3.44306 7.95731 1.91499
92 1 5.86238 7.94435 1.90764
93 1 8.31559 7.92978 1.90052
94 1 10.7808 7.91563 1.89376
95 1 13.2507 7.90193 1.88739
96 1 15.7223 7.88844 1.88124
97 1 18.1947 7.87503 1.87521
98 1 20.6675 7.86165 1.86926
99 1 23.1404 7.84825 1.86333
100 1 25.6134 7.83484 1.85743
101 1 28.0865 7.82141 1.85153
102 1 30.5596 7.80797 1.84564
103 1 33.0326 7.79451 1.83976
104 1 35.5057 7.78104 1.83389
105 1 37.9788 7.76756 1.82804
106 1 40.4519 7.75409 1.8222
107 1 42.925 7.74061 1.81639
108 1 45.3981 7.72715 1.8106
109 1 47.8711 7.7137 1.80484
110 1 50.3442 7.70027 1.79914
111 1 52.8172 7.68688 1.79349
112 1 55.2901 7.67354 1.78791
113 1 57.7632 7.66027 1.78243
114 1 60.2365 7.64714 1.77705
115 1 62.7106 7.63427 1.77175
116 1 65.1872 7.62193 1.7663
117 1 67.6711 7.60972 1.76042
118 1 70.182 7.59598 1.74686
35496 1 72.7394 7.51944 1.8831
35497 1 75.4235 8.42916 2.77513
35498 1 73.884 9.47782 0.994428
35499 1 75.7495 8.02235 0.345296
35500 1 77.7741 8.93745 1.26421
35501 1 77.3003 6.85483 2.48805
35502 1 79.5504 7.26941 0.851853
35503 1 81.6903 8.19602 1.65721
35504 1 83.5009 6.55736 1.2504
35505 1 83.8318 9.12053 2.46088
35506 1 84.0047 8.65239 0.0379028
35507 1 85.6454 7.48288 2.054
35508 1 87.7898 8.40697 2.85792
35509 1 87.958 7.94161 0.434477
35510 1 90.1003 8.8664 1.23828
35511 1 89.6035 6.77111 2.45116
35512 1 91.9133 7.23025 0.831243
35513 1 94.0561 8.15548 1.63532
35514 1 95.8691 6.51932 1.22818
35515 1 96.1989 9.08087 2.43951
35516 1 96.3638 8.61484 0.0150583
35517 1 100.32 7.90407 0.412022
35518 1 98.0122 7.44475 2.03232
35519 1 100.155 8.3702 2.83649
35520 1 98.5066 9.54029 0.819258
35521 1 102.463 8.82954 1.2162
35522 1 101.969 6.73406 2.4292
35523 1 104.276 7.19336 0.808876
35524 1 106.42 8.11883 1.61303
35525 1 108.233 6.48268 1.20565
35526 1 108.563 9.04428 2.41719
35527 1 110.377 7.40816 2.00978
35528 1 108.728 8.57809 -0.00731072
35529 1 112.685 7.8674 0.38942
35530 1 112.52 8.33363 2.81391
35531 1 110.871 9.50353 0.796836
35532 1 114.828 8.79285 1.19354
35533 1 116.642 7.15675 0.786086
35534 1 114.334 6.69753 2.40646
35535 1 118.786 8.08221 1.59017
35536 1 120.599 6.44613 1.18269
35537 1 120.929 9.00766 2.39424
35538 1 122.743 7.37159 1.98675
35539 1 125.051 7.83078 0.366325
35540 1 124.887 8.29706 2.79078
35541 1 123.238 9.46684 0.773828
35542 1 127.195 8.75623 1.17033
35543 1 129.009 7.12018 0.762766
35544 1 126.701 6.66102 2.38325
35545 1 128.845 7.58649 3.18723
35546 1 131.153 8.0456 1.56667
35547 1 132.967 6.40948 1.15898
35548 1 135.605 9.43 0.749794
35549 1 135.11 7.33443 1.96247
35550 1 133.297 8.97092 2.37046
35551 1 137.422 7.79445 0.342694
35552 1 137.252 8.25978 2.76565
35553 1 139.07 6.62671 2.35853
35554 1 141.374 7.08887 0.74034
35555 1 139.568 8.72483 1.1483
35556 1 141.217 7.55383 3.16338
35557 1 143.515 8.0224 1.56546
35558 1 147.228 7.31 1.90602
35559 1 145.669 9.04058 2.30073
35560 1 147.694 9.18601 0.00186194
119 1 2.53603 10.3198 1.90445
120 1 1.55311 12.5963 1.8902
121 1 5.0066 10.2819 1.90805
122 1 4.13132 12.6064 1.90266
123 1 7.4792 10.2651 1.90117
124 1 9.11778 12.5816 1.89445
125 1 6.63333 12.5936 1.8985
126 1 9.95163 10.2501 1.89482
127 1 12.4242 10.2361 1.88875
128 1 11.5955 12.5689 1.88947
129 1 14.897 10.2225 1.8828
130 1 14.0706 12.5559 1.88407
131 1 17.3699 10.209 1.8769
132 1 16.5445 12.5427 1.87844
133 1 19.8429 10.1956 1.87102
134 1 21.4912 12.5161 1.86692
135 1 19.018 12.5295 1.87271
136 1 22.3159 10.1822 1.86514
137 1 24.7889 10.1688 1.85927
138 1 23.9644 12.5028 1.86109
139 1 27.262 10.1554 1.85339
140 1 26.4375 12.4893 1.85524
141 1 28.9105 12.4759 1.84938
142 1 29.735 10.1419 1.84752
143 1 31.3836 12.4625 1.84352
144 1 32.2081 10.1285 1.84165
145 1 34.6812 10.115 1.83578
146 1 33.8567 12.449 1.83766
147 1 37.1543 10.1015 1.82992
148 1 36.3298 12.4355 1.8318
149 1 39.6274 10.0881 1.82408
150 1 38.8028 12.4221 1.82596
151 1 41.2759 12.4086 1.82013
152 1 42.1005 10.0746 1.81826
153 1 43.749 12.3951 1.81432
154 1 44.5735 10.0611 1.81246
155 1 47.0466 10.0477 1.80669
156 1 46.2221 12.3817 1.80854
157 1 49.5197 10.0343 1.80096
158 1 48.6952 12.3682 1.80278
159 1 51.1683 12.3548 1.79706
160 1 51.9928 10.0209 1.79527
161 1 53.6414 12.3414 1.79139
162 1 54.4658 10.0075 1.78966
163 1 56.1144 12.328 1.78575
164 1 56.9388 9.99409 1.78416
165 1 59.4119 9.98066 1.77886
166 1 58.5874 12.3146 1.78015
167 1 61.0605 12.3011 1.77453
168 1 61.8848 9.96703 1.77397
169 1 63.5341 12.2873 1.76868
170 1 64.3575 9.95275 1.7701
171 1 66.0096 12.2728 1.76187
172 1 66.8288 9.93616 1.7688
173 1 68.4923 12.255 1.75321
174 1 69.2949 9.90697 1.76843
175 1 70.9954 12.2523 1.72752
176 1 71.7088 9.89996 1.87745
35561 1 73.6765 12.0664 1.85314
35562 1 75.9305 10.5915 1.65198
35563 1 78.062 11.4475 2.47386
35564 1 78.2748 10.9967 0.03367
35565 1 76.5203 12.6365 0.438964
35566 1 80.3865 11.9275 0.852376
35567 1 79.8873 9.83646 2.0681
35568 1 82.0176 10.7597 2.86885
35569 1 84.3304 11.215 1.24811
35570 1 82.1904 10.2876 0.443448
35571 1 86.1449 9.57823 0.841436
35572 1 88.2871 10.5025 1.64521
35573 1 86.4732 12.1382 2.05199
35574 1 90.4296 11.4273 2.44933
35575 1 88.7826 12.5978 0.431805
35576 1 90.5953 10.9618 0.0249032
35577 1 92.7375 11.8871 0.829182
35578 1 92.2429 9.7915 2.04238
35579 1 94.3856 10.7169 2.84662
35580 1 94.5506 10.251 0.422167
35581 1 96.6933 11.1765 1.22642
35582 1 100.65 10.4657 1.62347
35583 1 98.8361 12.1019 2.03069
35584 1 101.144 12.5613 0.410432
35585 1 102.793 11.3911 2.42769
35586 1 102.957 10.925 0.00317809
35587 1 105.1 11.8505 0.807394
35588 1 106.914 10.2143 0.400058
35589 1 104.606 9.75498 2.02038
35590 1 106.75 10.6804 2.82456
35591 1 109.057 11.1397 1.20423
35592 1 113.509 12.5243 0.388027
35593 1 113.015 10.429 1.60097
35594 1 111.201 12.0651 2.00839
35595 1 115.158 11.3544 2.40509
35596 1 115.323 10.8882 -0.0193979
35597 1 116.972 9.7183 1.99764
35598 1 119.28 10.1775 0.377247
35599 1 117.466 11.8136 0.784702
35600 1 119.116 10.6437 2.80172
35601 1 121.424 11.1029 1.18131
35602 1 125.876 12.4875 0.36492
35603 1 125.381 10.3923 1.57785
35604 1 123.568 12.0283 1.98536
35605 1 123.073 9.93312 3.19829
35606 1 129.339 9.68168 1.97429
35607 1 127.525 11.3177 2.38185
35608 1 131.647 10.1408 0.353741
35609 1 129.834 11.7769 0.761368
35610 1 131.483 10.6071 2.7782
35611 1 131.977 12.7023 1.5653
35612 1 129.669 12.2432 3.18581
35613 1 133.791 11.0662 1.15755
35614 1 135.44 9.89652 3.17422
35615 1 138.246 12.4538 0.341967
35616 1 137.748 10.3565 1.55359
35617 1 135.934 11.9919 1.96129
35618 1 141.723 9.66002 1.95801
35619 1 139.892 11.283 2.35735
35620 1 143.985 10.1186 0.334916
35621 1 142.204 11.752 0.742689
35622 1 144.383 12.6634 1.56362
35623 1 143.903 10.606 2.78309
35624 1 142.036 12.2087 3.16242
35625 1 148.274 10.2683 2.01745
35626 1 146.181 11.043 1.11596
177 1 0.895595 14.9652 1.98656
178 1 3.33475 14.9476 1.90213
179 1 5.81667 14.9287 1.90176
180 1 8.29543 14.9153 1.89703
181 1 10.7716 14.9025 1.89162
182 1 13.2463 14.8896 1.88604
183 1 15.7201 14.8765 1.88035
184 1 18.1936 14.8634 1.87459
185 1 20.6668 14.8501 1.86879
186 1 23.14 14.8367 1.86296
187 1 25.613 14.8233 1.85711
188 1 28.0861 14.8099 1.85126
189 1 30.5592 14.7965 1.8454
190 1 33.0322 14.783 1.83954
191 1 35.5053 14.7695 1.83369
192 1 37.9783 14.756 1.82784
193 1 40.4514 14.7426 1.82201
194 1 42.9245 14.7291 1.8162
195 1 45.3976 14.7157 1.81041
196 1 47.8707 14.7022 1.80465
197 1 50.3439 14.6888 1.79893
198 1 52.8171 14.6754 1.79325
199 1 55.2903 14.6621 1.78764
200 1 57.7636 14.6487 1.78209
201 1 60.237 14.6354 1.77664
202 1 62.7107 14.6218 1.77129
203 1 65.1846 14.6078 1.76606
204 1 67.658 14.5918 1.76049
205 1 70.1252 14.5806 1.75438
206 1 72.5559 14.5855 1.81888
35627 1 74.6831 14.1434 0.950936
35628 1 76.735 15.2223 1.64386
35629 1 78.5815 13.569 1.268
35630 1 76.2552 13.0428 2.82445
35631 1 80.6977 14.4943 2.06576
35632 1 79.0732 15.6487 0.0414779
35633 1 82.5168 12.8538 1.65591
35634 1 82.8419 15.4081 2.8659
35635 1 84.659 13.7737 2.45893
35636 1 83.0126 14.9469 0.441899
35637 1 84.8275 13.3101 0.0348468
35638 1 85.1559 15.8674 1.2446
35639 1 86.9694 14.2333 0.838431
35640 1 89.1108 15.1587 1.64293
35641 1 90.9243 13.5231 1.23613
35642 1 88.616 13.0628 2.85614
35643 1 91.4173 15.6189 0.0228088
35644 1 93.0663 14.4486 2.04054
35645 1 94.8799 12.8126 1.63352
35646 1 95.2088 15.374 2.84492
35647 1 97.0226 13.738 2.43784
35648 1 95.3733 14.9083 0.420365
35649 1 97.1869 13.2721 0.0132932
35650 1 97.5161 15.8337 1.22478
35651 1 99.3299 14.1975 0.817633
35652 1 100.979 13.0273 2.83495
35653 1 101.473 15.1228 1.62195
35654 1 103.287 13.4867 1.21469
35655 1 103.78 15.5821 0.00171338
35656 1 107.244 12.7758 1.6116
35657 1 105.43 14.412 2.01893
35658 1 107.738 14.8713 0.398636
35659 1 109.387 13.7012 2.41578
35660 1 107.573 15.3374 2.82315
35661 1 109.552 13.2351 -0.00872602
35662 1 109.881 15.7966 1.20282
35663 1 111.695 14.1604 0.795435
35664 1 113.345 12.9905 2.81253
35665 1 115.653 13.4497 1.19214
35666 1 113.839 15.0858 1.59957
35667 1 116.147 15.545 -0.0208151
35668 1 119.61 12.739 1.58878
35669 1 117.796 14.3751 1.99624
35670 1 120.104 14.8342 0.375824
35671 1 122.248 15.7596 1.17987
35672 1 121.754 13.6644 2.39284
35673 1 119.94 15.3005 2.8003
35674 1 125.711 12.9538 2.78937
35675 1 124.062 14.1236 0.772404
35676 1 126.206 15.049 1.57642
35677 1 123.897 14.5898 3.19687
35678 1 128.02 13.4129 1.16892
35679 1 132.472 14.7975 0.352359
35680 1 130.163 14.3384 1.9729
35681 1 132.307 15.264 2.7769
35682 1 134.615 15.7228 1.15617
35683 1 134.121 13.6279 2.36923
35684 1 138.076 12.9172 2.76459
35685 1 136.43 14.0876 0.748746
35686 1 138.575 15.0138 1.55214
35687 1 136.264 14.5534 3.17309
35688 1 140.395 13.3843 1.14674
35689 1 144.787 14.7598 0.334542
35690 1 142.566 14.3084 1.95224
35691 1 144.789 15.2395 2.74453
35692 1 146.969 15.591 0.957941
35693 1 146.644 13.5711 2.23971
207 1 2.54411 17.2584 1.89335
208 1 0.100916 17.2993 2.00261
209 1 5.01359 17.2618 1.90663
210 1 7.48185 17.2492 1.90071
211 1 9.95259 17.2367 1.89474
212 1 12.4245 17.2238 1.88868
213 1 14.8971 17.2106 1.88266
214 1 17.3699 17.1974 1.8767
215 1 19.8428 17.1841 1.87079
216 1 22.3157 17.1707 1.8649
217 1 24.7887 17.1573 1.85903
218 1 27.2617 17.1439 1.85316
219 1 29.7348 17.1305 1.8473
220 1 32.2078 17.117 1.84144
221 1 34.6808 17.1035 1.83558
222 1 37.1539 17.0901 1.82974
223 1 39.6269 17.0766 1.8239
224 1 42.1 17.0631 1.81809
225 1 44.5731 17.0496 1.81229
226 1 47.0462 17.0362 1.80653
227 1 49.5194 17.0228 1.80082
228 1 51.9927 17.0094 1.79517
229 1 54.4661 16.9961 1.78961
230 1 56.9397 16.9827 1.78418
231 1 59.4138 16.9695 1.77895
232 1 61.8885 16.9562 1.77404
233 1 64.3644 16.9429 1.76955
234 1 66.8433 16.9295 1.76525
235 1 69.3297 16.9181 1.76164
236 1 71.8419 16.9121 1.69888
35694 1 74.5433 16.8343 1.97515
35695 1 75.4954 18.8491 0.88619
35696 1 76.953 17.7362 2.87747
35697 1 77.3262 17.3013 0.475295
35698 1 78.851 16.1278 2.47254
35699 1 79.3826 18.2326 1.26844
35700 1 81.194 16.5829 0.84847
35701 1 83.3421 17.4985 1.64914
35702 1 87.7886 18.8899 0.835947
35703 1 85.4821 18.4273 2.45519
35704 1 87.2968 16.7936 2.04943
35705 1 85.6466 17.9632 0.0303916
35706 1 91.2526 16.0844 2.44744
35707 1 89.4384 17.7197 2.85411
35708 1 89.6034 17.2548 0.429598
35709 1 91.7455 18.1804 1.23429
35710 1 93.5595 16.5444 0.827376
35711 1 95.7022 17.4698 1.63186
35712 1 97.8452 18.3951 2.4363
35713 1 100.153 18.8546 0.816207
35714 1 99.6592 16.759 2.02915
35715 1 98.0093 17.9293 0.0117902
35716 1 103.616 16.0482 2.42623
35717 1 101.967 17.2184 0.408977
35718 1 101.802 17.6843 2.8335
35719 1 104.11 18.1436 1.21329
35720 1 105.924 16.5074 0.805973
35721 1 106.253 19.0689 2.01755
35722 1 108.067 17.4327 1.6102
35723 1 110.211 18.358 2.41438
35724 1 110.375 17.8919 -0.0101323
35725 1 112.519 18.8172 0.794012
35726 1 112.025 16.7219 2.00698
35727 1 115.982 16.0112 2.40368
35728 1 114.333 17.1811 0.386604
35729 1 116.477 18.1064 1.1907
35730 1 114.168 17.6473 2.81111
35731 1 118.29 16.4703 0.783268
35732 1 118.62 19.0318 1.99477
35733 1 120.434 17.3957 1.58733
35734 1 122.578 18.3211 2.39136
35735 1 124.886 18.7802 0.770906
35736 1 124.392 16.685 1.98389
35737 1 128.35 15.9744 2.3804
35738 1 126.7 17.1442 0.363441
35739 1 128.844 18.0696 1.16741
35740 1 126.536 17.6104 2.78789
35741 1 130.658 16.4335 0.759909
35742 1 130.988 18.995 1.97135
35743 1 130.493 16.8999 3.18437
35744 1 132.802 17.359 1.56381
35745 1 134.946 18.2845 2.36763
35746 1 137.252 18.7427 0.745962
35747 1 136.759 16.6479 1.9597
35748 1 140.724 15.9343 2.35389
35749 1 139.07 17.1097 0.338913
35750 1 141.216 18.0368 1.14377
35751 1 138.902 17.5698 2.76257
35752 1 143.062 16.4224 0.754308
35753 1 143.387 18.9451 1.94375
35754 1 142.877 16.8442 3.14678
35755 1 145.398 17.4025 1.61351
237 1 1.77432 19.6295 1.93338
238 1 0.871394 21.9053 1.95718
239 1 3.34761 21.9276 1.91973
240 1 4.20906 19.6054 1.92007
241 1 5.82637 21.9189 1.90801
242 1 6.66688 19.5881 1.90782
243 1 9.13277 19.5727 1.8991
244 1 8.30146 21.9056 1.90005
245 1 11.6024 19.5587 1.89176
246 1 10.775 21.8923 1.89314
247 1 14.0738 19.5451 1.88514
248 1 13.2481 21.8789 1.88678
249 1 15.7211 21.8655 1.88068
250 1 16.5461 19.5316 1.87889
251 1 18.1941 21.8522 1.8747
252 1 19.0187 19.5182 1.87283
253 1 20.6671 21.8388 1.86877
254 1 21.4915 19.5048 1.86688
255 1 23.9644 19.4914 1.86097
256 1 23.1401 21.8254 1.86288
257 1 25.6131 21.812 1.857
258 1 26.4374 19.4779 1.85508
259 1 28.0861 21.7985 1.85113
260 1 28.9104 19.4645 1.84921
261 1 30.5591 21.7851 1.84526
262 1 31.3834 19.451 1.84335
263 1 33.8564 19.4376 1.83749
264 1 33.0321 21.7716 1.8394
265 1 35.5051 21.7581 1.83355
266 1 36.3294 19.4241 1.83164
267 1 37.9781 21.7447 1.8277
268 1 38.8025 19.4106 1.8258
269 1 40.4511 21.7312 1.82187
270 1 41.2755 19.3971 1.81998
271 1 43.7486 19.3837 1.81418
272 1 42.9241 21.7177 1.81606
273 1 45.3971 21.7042 1.81027
274 1 46.2216 19.3702 1.80841
275 1 47.8701 21.6908 1.80452
276 1 48.6948 19.3568 1.80269
277 1 50.3432 21.6773 1.79882
278 1 51.168 19.3433 1.79703
279 1 52.8164 21.6638 1.79317
280 1 53.6414 19.3299 1.79146
281 1 55.2896 21.6503 1.78759
282 1 56.115 19.3165 1.78604
283 1 57.7631 21.6368 1.7821
284 1 58.589 19.3032 1.78088
285 1 60.2369 21.6232 1.77672
286 1 61.0636 19.2897 1.77622
287 1 62.7113 21.6095 1.77145
288 1 63.5387 19.2762 1.77257
289 1 65.187 21.5957 1.7662
290 1 66.0141 19.2625 1.77107
291 1 67.665 21.5823 1.76084
292 1 68.4866 19.2483 1.77365
293 1 70.1484 21.5755 1.75246
294 1 70.9439 19.2321 1.77938
295 1 72.6267 21.5906 1.73193
35756 1 73.3488 19.3084 1.7767
35757 1 75.327 21.4771 1.97534
35758 1 77.5165 19.8864 1.67152
35759 1 78.1529 21.9517 0.43232
35760 1 81.5359 19.1288 2.05435
35761 1 79.7307 20.749 2.44966
35762 1 79.8892 20.2926 0.0272182
35763 1 82.0204 21.2315 0.841848
35764 1 84.16 22.1599 1.64863
35765 1 83.6693 20.0618 2.86137
35766 1 83.8314 19.5959 0.435816
35767 1 85.9734 20.5243 1.24213
35768 1 88.1157 21.4514 2.04753
35769 1 89.9308 19.816 1.64097
35770 1 90.4229 21.9123 0.428274
35771 1 93.888 19.1059 2.03886
35772 1 94.3808 21.2017 0.825985
35773 1 92.0734 20.7417 2.4457
35774 1 92.2379 20.2764 0.0213458
35775 1 96.5241 22.1269 1.63055
35776 1 96.031 20.0311 2.84337
35777 1 96.1952 19.5656 0.418915
35778 1 98.3385 20.4908 1.2234
35779 1 100.482 21.4159 2.02783
35780 1 102.79 21.8752 0.407695
35781 1 102.296 19.7798 1.62057
35782 1 106.747 21.1642 0.804614
35783 1 104.439 20.705 2.42488
35784 1 104.604 20.239 0.000368951
35785 1 108.561 19.5281 0.397245
35786 1 108.891 22.0894 1.6088
35787 1 108.397 19.9942 2.82176
35788 1 110.705 20.4533 1.20141
35789 1 112.849 21.3786 2.00554
35790 1 115.157 21.8377 0.385127
35791 1 114.663 19.7425 1.59812
35792 1 119.115 21.1269 0.781767
35793 1 116.806 20.6678 2.4022
35794 1 116.971 20.2016 -0.0222887
35795 1 120.929 19.4909 0.374335
35796 1 121.258 22.0523 1.5858
35797 1 120.764 19.9571 2.79881
35798 1 123.072 20.4162 1.17836
35799 1 125.216 21.3416 1.98236
35800 1 124.722 19.2464 3.19537
35801 1 127.525 21.8007 0.361896
35802 1 127.03 19.7056 1.57489
35803 1 129.174 20.631 2.37884
35804 1 131.482 21.0901 0.758317
35805 1 131.318 21.5564 3.18274
35806 1 133.296 19.4539 0.350666
35807 1 135.439 20.3795 1.15443
35808 1 133.626 22.0156 1.56223
35809 1 133.132 19.9205 2.77526
35810 1 137.582 21.3047 1.95829
35811 1 137.09 19.2092 3.17136
35812 1 139.892 21.7659 0.337633
35813 1 139.391 19.6659 1.54838
35814 1 141.526 20.5767 2.34621
35815 1 139.724 22.228 2.76208
35816 1 143.903 21.0889 0.763474
35817 1 143.599 21.5113 3.14706
35818 1 148.273 20.7513 -0.002036
35819 1 145.669 19.5235 0.281175
35820 1 147.534 19.4694 1.8868
35821 1 146.39 21.9991 1.64843
35822 1 145.456 19.9481 2.80942
296 1 0.150873 24.1801 1.87293
297 1 2.55056 24.2623 1.88394
298 1 5.00499 24.2522 1.89458
299 1 7.47468 24.238 1.89537
300 1 9.94812 24.2252 1.89236
301 1 12.422 24.2123 1.8876
302 1 14.8957 24.1992 1.88216
303 1 17.3692 24.186 1.87645
304 1 19.8424 24.1727 1.87064
305 1 22.3156 24.1594 1.86479
306 1 24.7887 24.146 1.85893
307 1 27.2617 24.1326 1.85306
308 1 29.7348 24.1191 1.8472
309 1 32.2078 24.1057 1.84133
310 1 34.6808 24.0922 1.83547
311 1 37.1538 24.0787 1.82962
312 1 39.6268 24.0653 1.82377
313 1 42.0997 24.0518 1.81795
314 1 44.5727 24.0383 1.81214
315 1 47.0456 24.0249 1.80637
316 1 49.5186 24.0114 1.80063
317 1 51.9914 23.9979 1.79493
318 1 54.4643 23.9843 1.78926
319 1 56.937 23.9707 1.78362
320 1 59.4096 23.9569 1.77796
321 1 61.8818 23.9427 1.77215
322 1 64.3532 23.9281 1.76594
323 1 66.8228 23.9122 1.75876
324 1 69.2883 23.8962 1.74691
325 1 71.7356 23.8886 1.76301
35823 1 74.191 24.0264 1.72646
35824 1 77.9054 22.3205 2.81684
35825 1 76.263 23.5101 0.734034
35826 1 78.3426 24.5144 1.653
35827 1 76.2386 23.8487 3.17435
35828 1 80.2197 22.8835 1.25669
35829 1 80.709 24.9711 0.0401297
35830 1 80.5181 25.4303 2.45931
35831 1 82.3502 23.8002 2.05727
35832 1 84.4873 24.725 2.8619
35833 1 84.6491 24.2584 0.437428
35834 1 86.7923 25.1841 1.24232
35835 1 86.3011 23.0873 2.45429
35836 1 86.464 22.6217 0.0300499
35837 1 90.2585 22.3774 2.85243
35838 1 88.6074 23.5479 0.835166
35839 1 90.7509 24.4736 1.63999
35840 1 92.5661 22.8377 1.233
35841 1 93.0589 24.9336 0.0205634
35842 1 92.8946 25.3989 2.44474
35843 1 94.7095 23.7629 2.03766
35844 1 96.8531 24.6881 2.84225
35845 1 97.0173 24.2225 0.417877
35846 1 99.161 25.1476 1.22233
35847 1 98.6675 23.052 2.43506
35848 1 98.8317 22.5863 0.010612
35849 1 100.975 23.5114 0.815014
35850 1 102.625 22.3411 2.83219
35851 1 103.119 24.4365 1.61934
35852 1 104.933 22.8004 1.21198
35853 1 107.077 23.7255 2.01619
35854 1 105.427 24.8956 -0.000919584
35855 1 105.263 25.3616 2.42358
35856 1 109.385 24.1846 0.395841
35857 1 109.221 24.6507 2.82035
35858 1 111.529 25.1098 1.19995
35859 1 113.343 23.4738 0.79254
35860 1 111.035 23.0147 2.41294
35861 1 111.199 22.5485 -0.0115616
35862 1 114.992 22.3039 2.80962
35863 1 115.487 24.399 1.59661
35864 1 117.301 22.763 1.18919
35865 1 117.631 25.3243 2.40065
35866 1 119.444 23.6883 1.99323
35867 1 117.795 24.8581 -0.0238286
35868 1 121.753 24.1474 0.372779
35869 1 121.588 24.6136 2.79725
35870 1 125.711 23.4367 0.769349
35871 1 123.897 25.0727 1.17678
35872 1 123.402 22.9776 2.38981
35873 1 125.546 23.903 3.1938
35874 1 127.36 22.267 2.78633
35875 1 127.855 24.3621 1.57332
35876 1 129.668 22.7261 1.16585
35877 1 131.812 23.6516 1.9698
35878 1 129.998 25.2876 2.37728
35879 1 134.12 24.1108 0.349304
35880 1 133.956 24.5773 2.7738
35881 1 138.076 23.4001 0.74478
35882 1 136.264 25.0363 1.15318
35883 1 135.77 22.9412 2.36625
35884 1 137.914 23.8667 3.17049
35885 1 140.216 24.3231 1.5467
35886 1 142.036 22.6915 1.14272
35887 1 144.223 23.5787 1.92335
35888 1 142.357 25.2256 2.33447
35889 1 146.644 24.0539 0.220129
35890 1 146.223 24.5977 2.74685
326 1 1.6573 26.5762 1.96555
327 1 0.100888 27.7822 -0.016855
328 1 4.16321 26.582 1.9069
329 1 6.64647 26.57 1.90205
330 1 9.123 26.5582 1.89609
331 1 11.5975 26.5457 1.89031
332 1 14.0714 26.5329 1.88448
333 1 16.5449 26.5198 1.87861
334 1 19.0181 26.5066 1.87272
335 1 21.4913 26.4933 1.86682
336 1 23.9644 26.48 1.86093
337 1 26.4375 26.4666 1.85504
338 1 28.9105 26.4532 1.84916
339 1 31.3836 26.4397 1.84328
340 1 33.8566 26.4263 1.83741
341 1 36.3296 26.4128 1.83154
342 1 38.8026 26.3994 1.82568
343 1 41.2755 26.3859 1.81984
344 1 43.7485 26.3725 1.81402
345 1 46.2214 26.359 1.80822
346 1 48.6942 26.3455 1.80246
347 1 51.167 26.3321 1.79675
348 1 53.6396 26.3185 1.7911
349 1 56.112 26.3049 1.78551
350 1 58.584 26.2912 1.77999
351 1 61.0554 26.2773 1.77453
352 1 60.2314 28.6121 1.77678
353 1 62.7016 28.5982 1.77193
354 1 63.5258 26.2631 1.76906
355 1 65.9948 26.2486 1.76348
356 1 65.1698 28.5839 1.76756
357 1 68.4625 26.2342 1.75779
358 1 67.6343 28.569 1.76398
359 1 70.0919 28.5558 1.75935
360 1 70.9304 26.2369 1.75135
361 1 72.5377 28.5483 1.74818
35891 1 73.4155 26.2759 1.82871
35892 1 76.2133 26.1485 2.03871
35893 1 77.0716 28.1874 0.813352
35894 1 78.6544 27.0426 2.84567
35895 1 78.8832 26.5904 0.453077
35896 1 81.0054 27.5392 1.25566
35897 1 82.8353 25.9001 0.846365
35898 1 84.9774 26.8215 1.65
35899 1 83.1571 28.4557 2.05755
35900 1 87.1205 27.7463 2.45431
35901 1 87.2841 27.2801 0.0303458
35902 1 89.4284 28.2056 0.835111
35903 1 88.9358 26.1097 2.04706
35904 1 91.0797 27.035 2.85184
35905 1 91.2437 26.5696 0.427821
35906 1 93.3877 27.4947 1.23246
35907 1 95.2026 25.8587 0.825157
35908 1 97.3464 26.7837 1.62967
35909 1 95.5317 28.4197 2.03702
35910 1 99.4903 27.7086 2.43407
35911 1 99.6546 27.2429 0.00965229
35912 1 101.799 28.1679 0.813912
35913 1 103.613 26.5318 0.406486
35914 1 101.305 26.0726 2.0267
35915 1 103.449 26.9977 2.83097
35916 1 105.757 27.4568 1.21066
35917 1 107.571 25.8207 0.803248
35918 1 109.715 26.7459 1.60736
35919 1 107.901 28.3819 2.01478
35920 1 111.859 27.6711 2.41144
35921 1 112.023 27.2049 -0.013053
35922 1 115.981 26.4941 0.383584
35923 1 114.167 28.1301 0.790998
35924 1 113.673 26.0351 2.00403
35925 1 115.817 26.9603 2.80807
35926 1 118.125 27.4194 1.18761
35927 1 119.774 26.2496 3.20467
35928 1 119.939 25.7834 0.780199
35929 1 122.083 26.7087 1.58421
35930 1 120.269 28.3447 1.99163
35931 1 124.227 27.6341 2.3882
35932 1 126.041 25.9981 1.98077
35933 1 128.349 26.4572 0.360308
35934 1 126.535 28.0932 0.767729
35935 1 128.184 26.9235 2.78473
35936 1 126.37 28.5595 3.19217
35937 1 132.307 25.7469 0.756887
35938 1 130.493 27.3827 1.16427
35939 1 132.142 26.213 3.18124
35940 1 134.451 26.6726 1.56095
35941 1 132.637 28.3082 1.96819
35942 1 138.406 25.9609 1.95687
35943 1 136.596 27.5984 2.36521
35944 1 138.744 28.5236 3.16946
35945 1 140.724 26.4172 0.334076
35946 1 138.902 28.0527 0.742649
35947 1 140.55 26.8789 2.75777
35948 1 144.789 25.7223 0.724843
35949 1 142.877 27.327 1.12698
35950 1 144.97 28.228 1.95264
35951 1 144.408 26.1576 3.13027
35952 1 147.159 26.6035 1.6612
362 1 1.00023 28.9103 1.85858
363 1 2.49808 31.2517 1.95332
364 1 3.38021 28.9218 1.91683