ITEM: TIMESTEP
3735
ITEM: NUMBER OF ATOMS
2400
ITEM: BOX BOUNDS pp pp pp
-4.9192320044614499e+00 1.3131547000446162e+02
8.8681416390762324e-03 1.8047736858360910e+01
6.1852145024246900e-03 1.1413814785497570e+01
ITEM: ATOMS id type x y z
1 1 -2.43232 1.53505 1.44091
2 1 -4.36888 0.780787 2.86686
3 1 -3.21686 3.37826 2.86686
4 1 -4.36888 0.780787 0.0149575
895 1 -3.21686 3.37826 0.0149575
5 1 -0.605783 2.46451 2.86686
6 1 0.314933 0.66937 1.44091
7 1 1.20793 3.3693 1.44091
897 1 -0.605783 2.46451 0.0149575
8 1 2.11863 1.56825 2.86686
9 1 3.92513 2.46791 1.44091
901 1 2.11863 1.56825 0.0149575
10 1 6.63623 1.56329 1.44091
11 1 4.82781 0.66254 2.86686
12 1 5.73267 3.36815 2.86686
904 1 4.82781 0.66254 0.0149575
907 1 5.73267 3.36815 0.0149575
13 1 8.44444 2.46392 2.86686
14 1 9.34859 0.659405 1.44091
15 1 10.2526 3.36451 1.44091
909 1 8.44444 2.46392 0.0149575
16 1 11.1567 1.55995 2.86686
17 1 12.9647 2.46051 1.44091
18 1 13.8688 0.655929 2.86686
913 1 11.1567 1.55995 0.0149575
914 1 13.8688 0.655929 0.0149575
19 1 15.6769 1.55649 1.44091
20 1 14.7728 3.36107 2.86686
918 1 14.7728 3.36107 0.0149575
21 1 17.485 2.45706 2.86686
22 1 20.1971 1.55304 2.86686
23 1 18.389 0.65248 1.44091
24 1 19.293 3.35762 1.44091
25 1 17.485 2.45706 0.0149575
26 1 20.1971 1.55304 0.0149575
27 1 22.0052 2.45361 1.44091
28 1 22.9092 0.649028 2.86686
29 1 22.9092 0.649028 0.0149575
30 1 26.5254 2.45015 2.86686
31 1 24.7173 1.54959 1.44091
32 1 23.8133 3.35417 2.86686
33 1 26.5254 2.45015 0.0149575
34 1 23.8133 3.35417 0.0149575
35 1 29.2375 1.54614 2.86686
36 1 27.4295 0.645577 1.44091
37 1 28.3335 3.35072 1.44091
38 1 29.2375 1.54614 0.0149575
39 1 31.0456 2.4467 1.44091
40 1 31.9497 0.642126 2.86686
41 1 32.8537 3.34727 2.86686
42 1 31.9497 0.642126 0.0149575
43 1 32.8537 3.34727 0.0149575
44 1 33.7578 1.54269 1.44091
45 1 35.5659 2.44325 2.86686
46 1 35.5659 2.44325 0.0149575
47 1 38.278 1.53924 2.86686
48 1 36.4699 0.638674 1.44091
49 1 37.374 3.34381 1.44091
50 1 38.278 1.53924 0.0149575
51 1 40.0861 2.4398 1.44091
52 1 40.9901 0.635223 2.86686
53 1 41.8942 3.34036 2.86686
54 1 40.9901 0.635223 0.0149575
55 1 41.8942 3.34036 0.0149575
56 1 42.7982 1.53579 1.44091
57 1 44.6063 2.43635 2.86686
58 1 45.5104 0.631771 1.44091
59 1 44.6063 2.43635 0.0149575
60 1 47.3185 1.53233 2.86686
61 1 46.4144 3.33691 1.44091
62 1 47.3185 1.53233 0.0149575
63 1 49.1265 2.4329 1.44091
64 1 51.8387 1.52889 1.44091
65 1 50.0306 0.628322 2.86686
66 1 50.9346 3.33346 2.86686
67 1 50.0306 0.628322 0.0149575
68 1 50.9346 3.33346 0.0149575
69 1 53.6468 2.42946 2.86686
70 1 54.5508 0.624846 1.44091
71 1 53.6468 2.42946 0.0149575
72 1 56.3588 1.52537 2.86686
73 1 58.1667 2.42582 1.44091
74 1 55.4549 3.33005 1.44091
75 1 56.3588 1.52537 0.0149575
76 1 60.8806 1.52284 1.44091
77 1 59.0716 0.621711 2.86686
78 1 59.9742 3.32606 2.86686
79 1 59.0716 0.621711 0.0149575
80 1 59.9742 3.32606 0.0149575
81 1 62.6914 2.42467 2.86686
82 1 63.5844 0.614881 1.44091
83 1 64.5052 3.32946 1.44091
84 1 62.6914 2.42467 0.0149575
85 1 65.385 1.50317 2.86686
86 1 65.385 1.50317 0.0149575
1249 1 67.1162 2.41571 1.44091
1250 1 68.2682 0.503464 2.86686
1251 1 69.4204 2.41617 1.44091
1971 1 68.2682 0.503464 0.0149575
1252 1 72.9522 0.615674 1.44091
1253 1 71.1516 1.50378 2.86686
1254 1 73.8452 2.42555 2.86686
1255 1 72.0315 3.33016 1.44091
1973 1 71.1516 1.50378 0.0149575
1974 1 73.8452 2.42555 0.0149575
1256 1 76.5624 3.32721 2.86686
1257 1 75.6561 1.5239 1.44091
1979 1 76.5624 3.32721 0.0149575
1258 1 77.4651 0.622945 2.86686
1259 1 80.1779 1.52687 2.86686
1260 1 78.37 2.42714 1.44091
1982 1 77.4651 0.622945 0.0149575
1983 1 80.1779 1.52687 0.0149575
1261 1 81.986 0.626523 1.44091
1262 1 82.89 2.43123 2.86686
1263 1 81.0818 3.33164 1.44091
1987 1 82.89 2.43123 0.0149575
1264 1 86.5062 0.630443 2.86686
1265 1 85.6021 3.33549 2.86686
1266 1 84.6981 1.53083 1.44091
1991 1 86.5062 0.630443 0.0149575
1992 1 85.6021 3.33549 0.0149575
1267 1 89.2184 1.53472 2.86686
1268 1 87.4103 2.43511 1.44091
1271 1 90.1224 3.33939 1.44091
1996 1 89.2184 1.53472 0.0149575
1269 1 91.0265 0.634335 1.44091
1270 1 91.9305 2.439 2.86686
1999 1 91.9305 2.439 0.0149575
1272 1 95.5468 0.63823 2.86686
1273 1 94.6427 3.34328 2.86686
1274 1 93.7386 1.53862 1.44091
1276 1 96.4508 2.4429 1.44091
2005 1 95.5468 0.63823 0.0149575
2007 1 94.6427 3.34328 0.0149575
1275 1 98.2589 1.54251 2.86686
1277 1 99.163 3.34718 1.44091
2010 1 98.2589 1.54251 0.0149575
1278 1 100.067 0.642125 1.44091
1279 1 100.971 2.44679 2.86686
1280 1 102.779 1.54641 1.44091
2014 1 100.971 2.44679 0.0149575
1281 1 104.587 0.646021 2.86686
1282 1 103.683 3.35107 2.86686
1283 1 105.491 2.45069 1.44091
2018 1 104.587 0.646021 0.0149575
2019 1 103.683 3.35107 0.0149575
1284 1 107.299 1.5503 2.86686
1285 1 108.204 3.35497 1.44091
1286 1 109.108 0.649916 1.44091
2022 1 107.299 1.5503 0.0149575
1287 1 110.012 2.45458 2.86686
1288 1 111.82 1.5542 1.44091
2026 1 110.012 2.45458 0.0149575
1289 1 113.628 0.653808 2.86686
1290 1 112.724 3.35886 2.86686
1291 1 114.532 2.45848 1.44091
2030 1 113.628 0.653808 0.0149575
2032 1 112.724 3.35886 0.0149575
1292 1 116.34 1.5581 2.86686
1293 1 118.148 0.657728 1.44091
1294 1 117.244 3.36274 1.44091
2035 1 116.34 1.5581 0.0149575
1295 1 119.052 2.46233 2.86686
1296 1 120.861 1.56188 1.44091
1297 1 121.764 3.36683 2.86686
2039 1 119.052 2.46233 0.0149575
2041 1 121.764 3.36683 0.0149575
1298 1 122.669 0.661306 2.86686
1299 1 123.572 2.46676 1.44091
2043 1 122.669 0.661306 0.0149575
1300 1 125.378 1.56728 2.86686
1301 1 127.182 0.668577 1.44091
1302 1 126.289 3.36842 1.44091
1303 1 128.103 2.46381 2.86686
2047 1 125.378 1.56728 0.0149575
2050 1 128.103 2.46381 0.0149575
1304 1 130.714 3.3778 2.86686
1305 1 129.929 1.53451 1.44091
2053 1 130.714 3.3778 0.0149575
87 1 -2.43232 6.04477 2.86686
88 1 -4.36888 5.2905 1.44091
965 1 -2.43232 6.04477 0.0149575
89 1 -1.48564 4.2908 1.44091
90 1 0.314933 5.17909 2.86686
91 1 -0.605783 6.97423 1.44091
968 1 0.314933 5.17909 0.0149575
92 1 3.01881 4.27113 2.86686
93 1 2.11863 6.07797 1.44091
94 1 3.92513 6.97763 2.86686
972 1 3.01881 4.27113 0.0149575
975 1 3.92513 6.97763 0.0149575
95 1 4.82781 5.17226 1.44091
96 1 6.63623 6.07301 2.86686
97 1 7.54057 4.2686 1.44091
977 1 6.63623 6.07301 0.0149575
98 1 9.34859 5.16912 2.86686
99 1 8.44444 6.97364 1.44091
981 1 9.34859 5.16912 0.0149575
100 1 12.0607 4.26508 2.86686
101 1 11.1567 6.06967 1.44091
102 1 13.8688 5.16565 1.44091
103 1 12.9647 6.97023 2.86686
984 1 12.0607 4.26508 0.0149575
988 1 12.9647 6.97023 0.0149575
104 1 16.5809 4.26163 1.44091
105 1 15.6769 6.06621 2.86686
990 1 15.6769 6.06621 0.0149575
106 1 18.389 5.1622 2.86686
107 1 20.1971 6.06276 1.44091
108 1 17.485 6.96677 1.44091
109 1 18.389 5.1622 0.0149575
110 1 21.1011 4.25818 2.86686
111 1 22.9092 5.15875 1.44091
112 1 22.0052 6.96332 2.86686
113 1 21.1011 4.25818 0.0149575
114 1 22.0052 6.96332 0.0149575
115 1 25.6214 4.25473 1.44091
116 1 24.7173 6.05931 2.86686
117 1 26.5254 6.95987 1.44091
118 1 24.7173 6.05931 0.0149575
119 1 27.4295 5.15529 2.86686
120 1 29.2375 6.05586 1.44091
121 1 27.4295 5.15529 0.0149575
122 1 30.1416 4.25128 2.86686
123 1 31.9497 5.15184 1.44091
124 1 31.0456 6.95642 2.86686
125 1 30.1416 4.25128 0.0149575
126 1 31.0456 6.95642 0.0149575
127 1 34.6618 4.24783 1.44091
128 1 33.7578 6.05241 2.86686
129 1 35.5659 6.95297 1.44091
130 1 33.7578 6.05241 0.0149575
131 1 39.182 4.24438 2.86686
132 1 36.4699 5.14839 2.86686
133 1 38.278 6.04895 1.44091
134 1 39.182 4.24438 0.0149575
135 1 36.4699 5.14839 0.0149575
136 1 40.9901 5.14494 1.44091
137 1 40.0861 6.94952 2.86686
138 1 40.0861 6.94952 0.0149575
139 1 43.7023 4.24093 1.44091
140 1 42.7982 6.0455 2.86686
141 1 45.5104 5.14149 2.86686
142 1 44.6063 6.94607 1.44091
143 1 42.7982 6.0455 0.0149575
144 1 45.5104 5.14149 0.0149575
145 1 48.2225 4.23748 2.86686
146 1 47.3185 6.04205 1.44091
147 1 48.2225 4.23748 0.0149575
148 1 50.0306 5.13804 1.44091
149 1 51.8387 6.03861 2.86686
150 1 49.1265 6.94261 2.86686
151 1 51.8387 6.03861 0.0149575
152 1 49.1265 6.94261 0.0149575
153 1 52.7427 4.23401 1.44091
154 1 54.5508 5.13456 2.86686
155 1 53.6468 6.93918 1.44091
156 1 54.5508 5.13456 0.0149575
157 1 57.2631 4.23068 2.86686
158 1 56.3588 6.03509 1.44091
159 1 58.1667 6.93554 2.86686
160 1 57.2631 4.23068 0.0149575
161 1 58.1667 6.93554 0.0149575
162 1 59.0716 5.13143 1.44091
163 1 60.8806 6.03256 2.86686
164 1 60.8806 6.03256 0.0149575
165 1 61.7807 4.22572 1.44091
166 1 62.6914 6.93439 1.44091
167 1 63.5844 5.1246 2.86686
168 1 63.5844 5.1246 0.0149575
169 1 65.385 6.01289 1.44091
1306 1 66.3317 4.25891 2.86686
1307 1 67.1162 6.92543 2.86686
2054 1 66.3317 4.25891 0.0149575
2055 1 67.1162 6.92543 0.0149575
1308 1 68.2682 5.01318 1.44091
1309 1 69.4204 6.92589 2.86686
1310 1 70.2049 4.25945 2.86686
2059 1 69.4204 6.92589 0.0149575
2060 1 70.2049 4.25945 0.0149575
1311 1 71.1516 6.0135 1.44091
1312 1 72.9522 5.12539 2.86686
1313 1 73.8452 6.93527 1.44091
2063 1 72.9522 5.12539 0.0149575
1314 1 75.6561 6.03361 2.86686
1315 1 74.7559 4.22668 1.44091
2067 1 75.6561 6.03361 0.0149575
1316 1 78.37 6.93686 2.86686
1317 1 77.4651 5.13266 1.44091
1318 1 80.1779 6.03659 1.44091
1319 1 79.2736 4.23209 2.86686
2070 1 78.37 6.93686 0.0149575
2071 1 79.2736 4.23209 0.0149575
1320 1 81.986 5.13624 2.86686
1321 1 82.89 6.94094 1.44091
2076 1 81.986 5.13624 0.0149575
1322 1 84.6981 6.04055 2.86686
1323 1 86.5062 5.14016 1.44091
1324 1 83.794 4.23587 1.44091
2079 1 84.6981 6.04055 0.0149575
1325 1 87.4103 6.94482 2.86686
1326 1 89.2184 6.04444 1.44091
1327 1 88.3143 4.23977 2.86686
2083 1 87.4103 6.94482 0.0149575
2084 1 88.3143 4.23977 0.0149575
1328 1 91.0265 5.14405 2.86686
1329 1 91.9305 6.94872 1.44091
1330 1 92.8346 4.24367 1.44091
2088 1 91.0265 5.14405 0.0149575
1331 1 93.7386 6.04833 2.86686
1332 1 95.5468 5.14795 1.44091
1333 1 96.4508 6.95261 2.86686
2093 1 93.7386 6.04833 0.0149575
2097 1 96.4508 6.95261 0.0149575
1334 1 98.2589 6.05223 1.44091
1335 1 97.3549 4.24756 2.86686
2099 1 97.3549 4.24756 0.0149575
1336 1 100.067 5.15184 2.86686
1337 1 100.971 6.95651 1.44091
1338 1 101.875 4.25146 1.44091
1339 1 102.779 6.05612 2.86686
2102 1 100.067 5.15184 0.0149575
2105 1 102.779 6.05612 0.0149575
1340 1 105.491 6.9604 2.86686
1341 1 104.587 5.15574 1.44091
2108 1 105.491 6.9604 0.0149575
1342 1 106.395 4.25535 2.86686
1343 1 107.299 6.06002 1.44091
1344 1 109.108 5.15963 2.86686
2111 1 106.395 4.25535 0.0149575
2113 1 109.108 5.15963 0.0149575
1345 1 111.82 6.06391 2.86686
1346 1 110.012 6.9643 1.44091
1347 1 110.916 4.25925 1.44091
2116 1 111.82 6.06391 0.0149575
1348 1 114.532 6.9682 2.86686
1349 1 113.628 5.16353 1.44091
1350 1 115.436 4.26314 2.86686
2119 1 114.532 6.9682 0.0149575
2122 1 115.436 4.26314 0.0149575
1351 1 118.148 5.16744 2.86686
1352 1 116.34 6.06782 1.44091
2125 1 118.148 5.16744 0.0149575
1353 1 120.861 6.0716 2.86686
1354 1 119.052 6.97205 1.44091
1355 1 119.956 4.2671 1.44091
2128 1 120.861 6.0716 0.0149575
1356 1 123.572 6.97648 2.86686
1357 1 124.478 4.27007 2.86686
1358 1 122.669 5.17102 1.44091
2132 1 123.572 6.97648 0.0149575
2134 1 124.478 4.27007 0.0149575
1359 1 127.182 5.17829 2.86686
1360 1 125.378 6.077 1.44091
1361 1 128.103 6.97353 1.44091
2137 1 127.182 5.17829 0.0149575
1362 1 129.929 6.04423 2.86686
1363 1 128.982 4.29019 1.44091
2140 1 129.929 6.04423 0.0149575
170 1 -3.21686 7.88797 1.44091
171 1 -4.36888 9.80022 2.86686
172 1 -2.43232 10.5545 1.44091
173 1 -4.36888 9.80022 0.0149575
174 1 -1.48564 8.80052 2.86686
175 1 0.314933 9.6888 1.44091
176 1 1.20793 7.87901 2.86686
1039 1 -1.48564 8.80052 0.0149575
1042 1 1.20793 7.87901 0.0149575
177 1 3.01881 8.78085 1.44091
178 1 2.11863 10.5877 2.86686
1045 1 2.11863 10.5877 0.0149575
179 1 5.73267 7.87787 1.44091
180 1 4.82781 9.68197 2.86686
181 1 7.54057 8.77832 2.86686
182 1 6.63623 10.5827 1.44091
1047 1 4.82781 9.68197 0.0149575
1050 1 7.54057 8.77832 0.0149575
183 1 10.2526 7.87423 2.86686
184 1 9.34859 9.67884 1.44091
1053 1 10.2526 7.87423 0.0149575
185 1 12.0607 8.7748 1.44091
186 1 13.8688 9.67536 2.86686
187 1 11.1567 10.5794 2.86686
1056 1 13.8688 9.67536 0.0149575
1059 1 11.1567 10.5794 0.0149575
188 1 14.7728 7.87079 1.44091
189 1 16.5809 8.77135 2.86686
190 1 15.6769 10.5759 1.44091
191 1 16.5809 8.77135 0.0149575
192 1 19.293 7.86734 2.86686
193 1 18.389 9.67191 1.44091
194 1 20.1971 10.5725 2.86686
195 1 19.293 7.86734 0.0149575
196 1 20.1971 10.5725 0.0149575
197 1 21.1011 8.7679 1.44091
198 1 22.9092 9.66846 2.86686
199 1 22.9092 9.66846 0.0149575
200 1 23.8133 7.86389 1.44091
201 1 25.6214 8.76445 2.86686
202 1 24.7173 10.569 1.44091
203 1 25.6214 8.76445 0.0149575
204 1 28.3335 7.86043 2.86686
205 1 27.4295 9.66501 1.44091
206 1 29.2375 10.5656 2.86686
207 1 28.3335 7.86043 0.0149575
208 1 29.2375 10.5656 0.0149575
209 1 32.8537 7.85698 1.44091
210 1 30.1416 8.761 1.44091
211 1 31.9497 9.66156 2.86686
212 1 31.9497 9.66156 0.0149575
213 1 34.6618 8.75755 2.86686
214 1 33.7578 10.5621 1.44091
215 1 34.6618 8.75755 0.0149575
216 1 37.374 7.85353 2.86686
217 1 36.4699 9.65811 1.44091
218 1 39.182 8.75409 1.44091
219 1 38.278 10.5587 2.86686
220 1 37.374 7.85353 0.0149575
221 1 38.278 10.5587 0.0149575
222 1 41.8942 7.85008 1.44091
223 1 40.9901 9.65466 2.86686
224 1 40.9901 9.65466 0.0149575
225 1 43.7023 8.75064 2.86686
226 1 45.5104 9.65121 1.44091
227 1 42.7982 10.5552 1.44091
228 1 43.7023 8.75064 0.0149575
229 1 46.4144 7.84663 2.86686
230 1 48.2225 8.74719 1.44091
231 1 47.3185 10.5518 2.86686
232 1 46.4144 7.84663 0.0149575
233 1 47.3185 10.5518 0.0149575
234 1 50.9346 7.84317 1.44091
235 1 50.0306 9.64776 2.86686
236 1 51.8387 10.5483 1.44091
237 1 50.0306 9.64776 0.0149575
238 1 52.7427 8.74373 2.86686
239 1 54.5508 9.64428 1.44091
240 1 52.7427 8.74373 0.0149575
241 1 55.4549 7.83976 2.86686
242 1 57.2631 8.74039 1.44091
243 1 56.3588 10.5448 2.86686
244 1 55.4549 7.83976 0.0149575
245 1 56.3588 10.5448 0.0149575
246 1 59.9742 7.83578 1.44091
247 1 59.0716 9.64115 2.86686
248 1 60.8806 10.5423 1.44091
249 1 59.0716 9.64115 0.0149575
250 1 61.7807 8.73543 2.86686
251 1 63.5844 9.63432 1.44091
252 1 64.5052 7.83917 2.86686
253 1 64.5052 7.83917 0.0149575
254 1 61.7807 8.73543 0.0149575
255 1 65.385 10.5226 2.86686
256 1 65.385 10.5226 0.0149575
1364 1 66.3317 8.76863 1.44091
1365 1 68.2682 9.5229 2.86686
1366 1 70.2049 8.76917 1.44091
2144 1 68.2682 9.5229 0.0149575
1367 1 72.0315 7.83987 2.86686
1368 1 71.1516 10.5232 2.86686
1369 1 72.9522 9.63511 1.44091
2146 1 72.0315 7.83987 0.0149575
2147 1 71.1516 10.5232 0.0149575
1370 1 76.5624 7.83692 1.44091
1371 1 74.7559 8.7364 2.86686
1372 1 75.6561 10.5433 1.44091
2151 1 74.7559 8.7364 0.0149575
1373 1 77.4651 9.64238 2.86686
1374 1 80.1779 10.5463 2.86686
1375 1 79.2736 8.74181 1.44091
2155 1 77.4651 9.64238 0.0149575
2156 1 80.1779 10.5463 0.0149575
1376 1 81.0818 7.84135 2.86686
1377 1 81.986 9.64596 1.44091
2160 1 81.0818 7.84135 0.0149575
1378 1 85.6021 7.84521 1.44091
1379 1 83.794 8.74559 2.86686
1380 1 86.5062 9.64988 2.86686
1381 1 84.6981 10.5503 1.44091
2163 1 83.794 8.74559 0.0149575
2164 1 86.5062 9.64988 0.0149575
1382 1 89.2184 10.5542 2.86686
1383 1 88.3143 8.74949 1.44091
1384 1 90.1224 7.8491 2.86686
2169 1 89.2184 10.5542 0.0149575
2172 1 90.1224 7.8491 0.0149575
1385 1 92.8346 8.75338 2.86686
1386 1 91.0265 9.65377 1.44091
2173 1 92.8346 8.75338 0.0149575
1387 1 94.6427 7.853 1.44091
1388 1 95.5468 9.65766 2.86686
1389 1 93.7386 10.5581 1.44091
2180 1 95.5468 9.65766 0.0149575
1390 1 99.163 7.85689 2.86686
1391 1 98.2589 10.5619 2.86686
1392 1 97.3549 8.75728 1.44091
2183 1 99.163 7.85689 0.0149575
2185 1 98.2589 10.5619 0.0149575
1393 1 101.875 8.76117 2.86686
1394 1 100.067 9.66156 1.44091
1395 1 102.779 10.5658 1.44091
2188 1 101.875 8.76117 0.0149575
1396 1 104.587 9.66545 2.86686
1397 1 103.683 7.86079 1.44091
2192 1 104.587 9.66545 0.0149575
1398 1 108.204 7.86468 2.86686
1399 1 107.299 10.5697 2.86686
1400 1 106.395 8.76507 1.44091
1401 1 109.108 9.66935 1.44091
2195 1 108.204 7.86468 0.0149575
2197 1 107.299 10.5697 0.0149575
1402 1 110.916 8.76896 2.86686
1403 1 111.82 10.5736 1.44091
2200 1 110.916 8.76896 0.0149575
1404 1 113.628 9.67324 2.86686
1405 1 112.724 7.86858 1.44091
1406 1 115.436 8.77285 1.44091
2204 1 113.628 9.67324 0.0149575
1407 1 117.244 7.87246 2.86686
1408 1 116.34 10.5775 2.86686
1409 1 118.148 9.67716 1.44091
2208 1 117.244 7.87246 0.0149575
2209 1 116.34 10.5775 0.0149575
1410 1 119.956 8.77682 2.86686
1411 1 120.861 10.5813 1.44091
1412 1 121.764 7.87654 1.44091
2212 1 119.956 8.77682 0.0149575
1413 1 122.669 9.68074 2.86686
1414 1 124.478 8.77979 1.44091
2216 1 122.669 9.68074 0.0149575
1415 1 126.289 7.87813 2.86686
1416 1 125.378 10.5867 2.86686
1417 1 127.182 9.68801 1.44091
2220 1 126.289 7.87813 0.0149575
2222 1 125.378 10.5867 0.0149575
1418 1 128.982 8.7999 2.86686
1419 1 130.714 7.88751 1.44091
1420 1 129.929 10.5539 1.44091
2225 1 128.982 8.7999 0.0149575
257 1 -3.21686 12.3977 2.86686
258 1 -4.36888 14.3099 1.44091
1107 1 -3.21686 12.3977 0.0149575
259 1 -0.605783 11.4839 2.86686
260 1 -1.48564 13.3102 1.44091
261 1 1.20793 12.3887 1.44091
262 1 0.314933 14.1985 2.86686
1110 1 -0.605783 11.4839 0.0149575
1114 1 0.314933 14.1985 0.0149575
263 1 3.92513 11.4873 1.44091
264 1 3.01881 13.2906 2.86686
1116 1 3.01881 13.2906 0.0149575
265 1 5.73267 12.3876 2.86686
266 1 7.54057 13.288 1.44091
267 1 4.82781 14.1917 1.44091
1119 1 5.73267 12.3876 0.0149575
268 1 8.44444 11.4834 2.86686
269 1 10.2526 12.3839 1.44091
270 1 9.34859 14.1886 2.86686
1123 1 8.44444 11.4834 0.0149575
1126 1 9.34859 14.1886 0.0149575
271 1 12.9647 11.4799 1.44091
272 1 12.0607 13.2845 2.86686
273 1 13.8688 14.1851 1.44091
1128 1 12.0607 13.2845 0.0149575
274 1 14.7728 12.3805 2.86686
275 1 16.5809 13.2811 1.44091
1132 1 14.7728 12.3805 0.0149575
276 1 17.485 11.4765 2.86686
277 1 19.293 12.3771 1.44091
278 1 18.389 14.1816 2.86686
279 1 17.485 11.4765 0.0149575
280 1 18.389 14.1816 0.0149575
281 1 22.0052 11.473 1.44091
282 1 21.1011 13.2776 2.86686
283 1 22.9092 14.1782 1.44091
284 1 21.1011 13.2776 0.0149575
285 1 26.5254 11.4696 2.86686
286 1 23.8133 12.3736 2.86686
287 1 25.6214 13.2742 1.44091
288 1 26.5254 11.4696 0.0149575
289 1 23.8133 12.3736 0.0149575
290 1 28.3335 12.3702 1.44091
291 1 27.4295 14.1747 2.86686
292 1 27.4295 14.1747 0.0149575
293 1 31.0456 11.4661 1.44091
294 1 30.1416 13.2707 2.86686
295 1 32.8537 12.3667 2.86686
296 1 31.9497 14.1713 1.44091
297 1 30.1416 13.2707 0.0149575
298 1 32.8537 12.3667 0.0149575
299 1 35.5659 11.4627 2.86686
300 1 34.6618 13.2673 1.44091
301 1 35.5659 11.4627 0.0149575
302 1 37.374 12.3632 1.44091
303 1 39.182 13.2638 2.86686
304 1 36.4699 14.1678 2.86686
305 1 39.182 13.2638 0.0149575
306 1 36.4699 14.1678 0.0149575
307 1 40.0861 11.4592 1.44091
308 1 41.8942 12.3598 2.86686
309 1 40.9901 14.1644 1.44091
310 1 41.8942 12.3598 0.0149575
311 1 44.6063 11.4558 2.86686
312 1 43.7023 13.2604 1.44091
313 1 45.5104 14.1609 2.86686
314 1 44.6063 11.4558 0.0149575
315 1 45.5104 14.1609 0.0149575
316 1 46.4144 12.3563 1.44091
317 1 48.2225 13.2569 2.86686
318 1 48.2225 13.2569 0.0149575
319 1 49.1265 11.4523 1.44091
320 1 50.9346 12.3529 2.86686
321 1 50.0306 14.1575 1.44091
322 1 50.9346 12.3529 0.0149575
323 1 53.6468 11.4489 2.86686
324 1 52.7427 13.2534 1.44091
325 1 54.5508 14.154 2.86686
326 1 53.6468 11.4489 0.0149575
327 1 54.5508 14.154 0.0149575
328 1 58.1667 11.4453 1.44091
329 1 55.4549 12.3495 1.44091
330 1 57.2631 13.2501 2.86686
331 1 57.2631 13.2501 0.0149575
332 1 59.9742 12.3455 2.86686
333 1 59.0716 14.1509 1.44091
334 1 59.9742 12.3455 0.0149575
335 1 62.6914 11.4441 2.86686
336 1 61.7807 13.2451 1.44091
337 1 63.5844 14.144 2.86686
338 1 64.5052 12.3489 1.44091
339 1 63.5844 14.144 0.0149575
340 1 62.6914 11.4441 0.0149575
1421 1 66.3317 13.2783 2.86686
1422 1 67.1162 11.4351 1.44091
2227 1 66.3317 13.2783 0.0149575
1423 1 68.2682 14.0326 1.44091
1424 1 69.4204 11.4356 1.44091
1425 1 70.2049 13.2789 2.86686
2231 1 70.2049 13.2789 0.0149575
1426 1 73.8452 11.445 2.86686
1427 1 72.9522 14.1448 2.86686
1428 1 72.0315 12.3496 1.44091
2234 1 72.9522 14.1448 0.0149575
2235 1 73.8452 11.445 0.0149575
1429 1 76.5624 12.3466 2.86686
1430 1 74.7559 13.2461 1.44091
2239 1 76.5624 12.3466 0.0149575
1431 1 78.37 11.4466 1.44091
1432 1 79.2736 13.2515 2.86686
1433 1 77.4651 14.1521 1.44091
2242 1 79.2736 13.2515 0.0149575
1434 1 82.89 11.4507 2.86686
1435 1 81.986 14.1557 2.86686
1436 1 81.0818 12.3511 1.44091
2246 1 82.89 11.4507 0.0149575
2247 1 81.986 14.1557 0.0149575
1437 1 85.6021 12.3549 2.86686
1438 1 83.794 13.2553 1.44091
1439 1 86.5062 14.1596 1.44091
2251 1 85.6021 12.3549 0.0149575
1440 1 87.4103 11.4545 1.44091
1441 1 88.3143 13.2592 2.86686
1444 1 90.1224 12.3588 1.44091
2255 1 88.3143 13.2592 0.0149575
1442 1 91.9305 11.4584 2.86686
1443 1 91.0265 14.1635 2.86686
1445 1 92.8346 13.2631 1.44091
2258 1 91.9305 11.4584 0.0149575
2259 1 91.0265 14.1635 0.0149575
1446 1 94.6427 12.3627 2.86686
1447 1 95.5468 14.1674 1.44091
1448 1 96.4508 11.4623 1.44091
2265 1 94.6427 12.3627 0.0149575
1449 1 97.3549 13.267 2.86686
1450 1 99.163 12.3666 1.44091
2269 1 97.3549 13.267 0.0149575
1451 1 100.971 11.4662 2.86686
1452 1 100.067 14.1713 2.86686
1453 1 101.875 13.2709 1.44091
2273 1 100.971 11.4662 0.0149575
2274 1 100.067 14.1713 0.0149575
1454 1 103.683 12.3705 2.86686
1455 1 105.491 11.4701 1.44091
1456 1 104.587 14.1752 1.44091
2278 1 103.683 12.3705 0.0149575
1457 1 106.395 13.2748 2.86686
1458 1 108.204 12.3744 1.44091
1459 1 109.108 14.1791 2.86686
2282 1 106.395 13.2748 0.0149575
2284 1 109.108 14.1791 0.0149575
1460 1 110.012 11.474 2.86686
1461 1 110.916 13.2787 1.44091
2286 1 110.012 11.474 0.0149575
1462 1 112.724 12.3783 2.86686
1463 1 114.532 11.4779 1.44091
1464 1 113.628 14.183 1.44091
1465 1 115.436 13.2826 2.86686
2290 1 112.724 12.3783 0.0149575
2293 1 115.436 13.2826 0.0149575
1466 1 118.148 14.1869 2.86686
1467 1 117.244 12.3822 1.44091
2296 1 118.148 14.1869 0.0149575
1468 1 119.052 11.4818 2.86686
1469 1 119.956 13.2865 1.44091
1470 1 121.764 12.3863 2.86686
2298 1 119.052 11.4818 0.0149575
2301 1 121.764 12.3863 0.0149575
1471 1 124.478 13.2895 2.86686
1472 1 123.572 11.4862 1.44091
1473 1 122.669 14.1905 1.44091
2305 1 124.478 13.2895 0.0149575
1474 1 127.182 14.1977 2.86686
1475 1 126.289 12.3879 1.44091
1476 1 128.103 11.4832 2.86686
2308 1 127.182 14.1977 0.0149575
2310 1 128.103 11.4832 0.0149575
1477 1 130.714 12.3972 2.86686
1478 1 128.982 13.3096 1.44091
2312 1 130.714 12.3972 0.0149575
341 1 -2.43232 15.0642 2.86686
342 1 -3.21686 16.9074 1.44091
1178 1 -2.43232 15.0642 0.0149575
343 1 -1.48564 17.82 2.86686
344 1 -0.605783 15.9937 1.44091
345 1 1.20793 16.8984 2.86686
1181 1 -1.48564 17.82 0.0149575
1184 1 1.20793 16.8984 0.0149575
346 1 3.01881 17.8003 1.44091
347 1 2.11863 15.0974 1.44091
348 1 3.92513 15.9971 2.86686
1187 1 3.92513 15.9971 0.0149575
349 1 7.54057 17.7978 2.86686
350 1 6.63623 15.0924 2.86686
351 1 5.73267 16.8973 1.44091
1190 1 7.54057 17.7978 0.0149575
1192 1 6.63623 15.0924 0.0149575
352 1 8.44444 15.9931 1.44091
353 1 10.2526 16.8937 2.86686
1195 1 10.2526 16.8937 0.0149575
354 1 12.0607 17.7942 1.44091
355 1 11.1567 15.0891 1.44091
356 1 12.9647 15.9897 2.86686
1199 1 12.9647 15.9897 0.0149575
357 1 16.5809 17.7908 2.86686
358 1 15.6769 15.0856 2.86686
359 1 14.7728 16.8902 1.44091
360 1 16.5809 17.7908 0.0149575
1202 1 15.6769 15.0856 0.0149575
361 1 20.1971 15.0822 1.44091
362 1 17.485 15.9862 1.44091
363 1 19.293 16.8868 2.86686
364 1 19.293 16.8868 0.0149575
365 1 21.1011 17.7873 1.44091
366 1 22.0052 15.9828 2.86686
367 1 22.0052 15.9828 0.0149575
368 1 25.6214 17.7839 2.86686
369 1 24.7173 15.0787 2.86686
370 1 23.8133 16.8833 1.44091
371 1 26.5254 15.9793 1.44091
372 1 25.6214 17.7839 0.0149575
373 1 24.7173 15.0787 0.0149575
374 1 29.2375 15.0753 1.44091
375 1 28.3335 16.8799 2.86686
376 1 28.3335 16.8799 0.0149575
377 1 30.1416 17.7804 1.44091
378 1 31.0456 15.9759 2.86686
379 1 32.8537 16.8764 1.44091
380 1 31.0456 15.9759 0.0149575
381 1 34.6618 17.777 2.86686
382 1 33.7578 15.0718 2.86686
383 1 35.5659 15.9724 1.44091
384 1 34.6618 17.777 0.0149575
385 1 33.7578 15.0718 0.0149575
386 1 39.182 17.7735 1.44091
387 1 38.278 15.0684 1.44091
388 1 37.374 16.873 2.86686
389 1 37.374 16.873 0.0149575
390 1 40.0861 15.969 2.86686
391 1 41.8942 16.8695 1.44091
392 1 40.0861 15.969 0.0149575
393 1 43.7023 17.7701 2.86686
394 1 42.7982 15.0649 2.86686
395 1 44.6063 15.9655 1.44091
396 1 43.7023 17.7701 0.0149575
397 1 42.7982 15.0649 0.0149575
398 1 48.2225 17.7666 1.44091
399 1 47.3185 15.0615 1.44091
400 1 46.4144 16.8661 2.86686
401 1 46.4144 16.8661 0.0149575
402 1 51.8387 15.058 2.86686
403 1 49.1265 15.962 2.86686
404 1 50.9346 16.8626 1.44091
405 1 51.8387 15.058 0.0149575
406 1 49.1265 15.962 0.0149575
407 1 52.7427 17.7632 2.86686
408 1 53.6468 15.9586 1.44091
409 1 52.7427 17.7632 0.0149575
410 1 57.2631 17.7598 1.44091
411 1 56.3588 15.0545 1.44091
412 1 55.4549 16.8592 2.86686
413 1 58.1667 15.955 2.86686
414 1 55.4549 16.8592 0.0149575
415 1 58.1667 15.955 0.0149575
416 1 60.8806 15.052 2.86686
417 1 59.9742 16.8552 1.44091
418 1 60.8806 15.052 0.0149575
419 1 61.7807 17.7549 2.86686
420 1 62.6914 15.9538 1.44091
421 1 64.5052 16.8586 2.86686
422 1 64.5052 16.8586 0.0149575
423 1 61.7807 17.7549 0.0149575
424 1 65.385 15.0323 1.44091
1479 1 66.3317 17.7881 1.44091
1480 1 67.1162 15.9449 2.86686
2314 1 67.1162 15.9449 0.0149575
1481 1 69.4204 15.9453 2.86686
1482 1 70.2049 17.7886 1.44091
2317 1 69.4204 15.9453 0.0149575
1483 1 71.1516 15.0329 1.44091
1484 1 72.0315 16.8593 2.86686
1485 1 73.8452 15.9547 1.44091
2320 1 72.0315 16.8593 0.0149575
1486 1 75.6561 15.053 2.86686
1487 1 74.7559 17.7558 2.86686
1488 1 76.5624 16.8564 1.44091
2324 1 75.6561 15.053 0.0149575
2325 1 74.7559 17.7558 0.0149575
1489 1 80.1779 15.056 1.44091
1490 1 78.37 15.9563 2.86686
1491 1 79.2736 17.7612 1.44091
2329 1 78.37 15.9563 0.0149575
1492 1 81.0818 16.8608 2.86686
1493 1 82.89 15.9604 1.44091
2333 1 81.0818 16.8608 0.0149575
1494 1 84.6981 15.06 2.86686
1495 1 83.794 17.765 2.86686
1496 1 85.6021 16.8646 1.44091
2336 1 84.6981 15.06 0.0149575
2337 1 83.794 17.765 0.0149575
1497 1 89.2184 15.0639 1.44091
1498 1 87.4103 15.9643 2.86686
1499 1 88.3143 17.7689 1.44091
1500 1 90.1224 16.8685 2.86686
2341 1 87.4103 15.9643 0.0149575
2345 1 90.1224 16.8685 0.0149575
1501 1 92.8346 17.7728 2.86686
1502 1 91.9305 15.9682 1.44091
2346 1 92.8346 17.7728 0.0149575
1503 1 93.7386 15.0678 2.86686
1504 1 94.6427 16.8724 1.44091
1506 1 96.4508 15.972 2.86686
2351 1 93.7386 15.0678 0.0149575
2356 1 96.4508 15.972 0.0149575
1505 1 98.2589 15.0717 1.44091
1507 1 99.163 16.8763 2.86686
1508 1 97.3549 17.7767 1.44091
2358 1 99.163 16.8763 0.0149575
1509 1 101.875 17.7806 2.86686
1510 1 100.971 15.9759 1.44091
1511 1 102.779 15.0756 2.86686
2361 1 101.875 17.7806 0.0149575
2363 1 102.779 15.0756 0.0149575
1512 1 105.491 15.9798 2.86686
1513 1 103.683 16.8802 1.44091
2366 1 105.491 15.9798 0.0149575
1514 1 108.204 16.8841 2.86686
1515 1 107.299 15.0795 1.44091
1516 1 106.395 17.7845 1.44091
2369 1 108.204 16.8841 0.0149575
1517 1 111.82 15.0833 2.86686
1518 1 110.916 17.7884 2.86686
1519 1 110.012 15.9837 1.44091
2373 1 111.82 15.0833 0.0149575
2375 1 110.916 17.7884 0.0149575
1520 1 114.532 15.9876 2.86686
1521 1 112.724 16.888 1.44091
1522 1 115.436 17.7923 1.44091
2377 1 114.532 15.9876 0.0149575
1523 1 117.244 16.8919 2.86686
1524 1 116.34 15.0873 1.44091
2382 1 117.244 16.8919 0.0149575
1525 1 120.861 15.091 2.86686
1526 1 119.956 17.7963 2.86686
1527 1 119.052 15.9915 1.44091
1528 1 121.764 16.896 1.44091
2385 1 120.861 15.091 0.0149575
2387 1 119.956 17.7963 0.0149575
1529 1 123.572 15.9959 2.86686
1530 1 124.478 17.7992 1.44091
2390 1 123.572 15.9959 0.0149575
1531 1 126.289 16.8976 2.86686
1532 1 125.378 15.0964 1.44091
1533 1 128.103 15.993 1.44091
2394 1 126.289 16.8976 0.0149575
1534 1 129.929 15.0637 2.86686
1535 1 128.982 17.8193 2.86686
1536 1 130.714 16.9069 1.44091
2398 1 129.929 15.0637 0.0149575
2400 1 128.982 17.8193 0.0149575
425 1 -2.43232 1.53505 4.29282
426 1 -2.43232 1.53505 7.14473
427 1 -4.36888 0.780787 5.71877
428 1 -3.21686 3.37826 5.71877
429 1 -0.605783 2.46451 5.71877
430 1 0.314933 0.66937 4.29282
431 1 0.314933 0.66937 7.14473
432 1 1.20793 3.3693 4.29282
433 1 1.20793 3.3693 7.14473
434 1 2.11863 1.56825 5.71877
435 1 3.92513 2.46791 4.29282
436 1 3.92513 2.46791 7.14473
437 1 6.63623 1.56329 4.29282
438 1 6.63623 1.56329 7.14473
439 1 4.82781 0.66254 5.71877
440 1 5.73267 3.36815 5.71877
441 1 8.44444 2.46392 5.71877
442 1 9.34859 0.659405 4.29282
443 1 9.34859 0.659405 7.14473
444 1 10.2526 3.36451 4.29282
445 1 10.2526 3.36451 7.14473
446 1 11.1567 1.55995 5.71877
447 1 12.9647 2.46051 4.29282
448 1 12.9647 2.46051 7.14473
449 1 13.8688 0.655929 5.71877
450 1 15.6769 1.55649 4.29282
451 1 15.6769 1.55649 7.14473
452 1 14.7728 3.36107 5.71877
453 1 17.485 2.45706 5.71877
454 1 20.1971 1.55304 5.71877
455 1 18.389 0.65248 4.29282
456 1 18.389 0.65248 7.14473
457 1 19.293 3.35762 4.29282
458 1 19.293 3.35762 7.14473
459 1 22.0052 2.45361 4.29282
460 1 22.0052 2.45361 7.14473
461 1 22.9092 0.649028 5.71877
462 1 26.5254 2.45015 5.71877
463 1 24.7173 1.54959 4.29282
464 1 24.7173 1.54959 7.14473
465 1 23.8133 3.35417 5.71877
466 1 29.2375 1.54614 5.71877
467 1 27.4295 0.645577 4.29282
468 1 27.4295 0.645577 7.14473
469 1 28.3335 3.35072 4.29282
470 1 28.3335 3.35072 7.14473
471 1 31.0456 2.4467 4.29282
472 1 31.0456 2.4467 7.14473
473 1 31.9497 0.642126 5.71877
474 1 32.8537 3.34727 5.71877
475 1 33.7578 1.54269 4.29282
476 1 33.7578 1.54269 7.14473
477 1 35.5659 2.44325 5.71877
478 1 38.278 1.53924 5.71877
479 1 36.4699 0.638674 4.29282
480 1 36.4699 0.638674 7.14473
481 1 37.374 3.34381 4.29282
482 1 37.374 3.34381 7.14473
483 1 40.0861 2.4398 4.29282
484 1 40.0861 2.4398 7.14473
485 1 40.9901 0.635223 5.71877
486 1 41.8942 3.34036 5.71877
487 1 42.7982 1.53579 4.29282
488 1 42.7982 1.53579 7.14473