ITEM: TIMESTEP
5811
ITEM: NUMBER OF ATOMS
2272
ITEM: BOX BOUNDS pp pp pp
-2.1977204902229017e+00 1.2859395849022266e+02
2.2466831253964842e-02 1.8034138168745997e+01
3.5896127169245312e-02 1.1384103872830766e+01
ITEM: ATOMS id type x y z c_eng
1 1 -1.7655 1.80615 2.85368 -3.91134
3 1 -0.0245806 2.69727 1.4327 -4.03228
6 1 0.860284 0.86461 2.84955 -4.14166
5 1 2.68274 1.74866 1.42614 -4.1258
89 1 1.78457 3.56479 2.8469 -4.11535
10 1 5.41006 0.818255 1.41854 -4.11669
11 1 4.50272 2.63026 2.84004 -4.12516
13 1 7.2217 1.69433 2.82944 -4.11587
95 1 6.32183 3.51287 1.41783 -4.1306
14 1 9.01759 2.59162 1.38398 -3.99786
17 1 9.95483 0.771892 2.89307 -3.96944
18 1 9.95483 0.771892 0.056014 -3.96944
19 1 12.9748 2.76615 1.06038 -3.84133
102 1 10.9287 3.30274 2.63364 -3.97599
1010 1 12.1553 0.747995 2.14476 -3.84132
20 1 14.2015 0.211407 3.40853 -3.97603
21 1 14.2015 0.211407 0.571478 -3.97603
22 1 16.1127 0.922569 1.82104 -3.99799
23 1 15.1752 2.74218 3.14903 -3.96936
24 1 15.1752 2.74218 0.311981 -3.96936
107 1 16.98 3.62373 1.78382 -4.08298
25 1 17.9087 1.81996 3.21264 -4.11622
26 1 17.9087 1.81996 0.375589 -4.11622
29 1 19.7209 2.69634 1.78649 -4.11779
27 1 20.6261 0.883041 3.20205 -4.1233
28 1 20.6261 0.883041 0.365 -4.1233
31 1 22.4433 1.76337 1.77893 -4.12229
114 1 21.5362 3.57549 3.1999 -4.12104
115 1 21.5362 3.57549 0.362849 -4.12104
32 1 24.2601 2.6435 3.19273 -4.12199
33 1 24.2601 2.6435 0.355683 -4.12199
36 1 25.1686 0.83216 1.77184 -4.12167
119 1 26.0767 3.52352 1.76947 -4.12185
37 1 26.985 1.71209 3.18563 -4.12175
38 1 26.985 1.71209 0.34858 -4.12175
40 1 28.8014 2.59204 1.76237 -4.12177
39 1 29.7097 0.780552 3.17853 -4.12179
41 1 29.7097 0.780552 0.341474 -4.12179
43 1 31.5262 1.66052 1.75526 -4.12179
123 1 30.6179 3.472 3.17616 -4.12178
124 1 30.6179 3.472 0.339105 -4.12178
44 1 33.3426 2.54048 3.16905 -4.12179
45 1 33.3426 2.54048 0.331999 -4.12179
48 1 34.2509 0.729003 1.74816 -4.12179
49 1 36.0674 1.60896 3.16195 -4.12179
50 1 36.0674 1.60896 0.324893 -4.12179
133 1 35.1591 3.42044 1.74579 -4.12179
52 1 38.7921 0.677449 3.15484 -4.12179
53 1 37.8838 2.48893 1.73868 -4.12179
54 1 38.7921 0.677449 0.317788 -4.12179
137 1 39.7003 3.36889 3.15247 -4.12179
138 1 39.7003 3.36889 0.315419 -4.12179
55 1 40.6086 1.55741 1.73158 -4.12179
57 1 42.4251 2.43737 3.14537 -4.12179
58 1 42.4251 2.43737 0.308313 -4.12179
56 1 43.3333 0.625895 1.72447 -4.12179
61 1 45.1498 1.50586 3.13826 -4.12179
63 1 45.1498 1.50586 0.301208 -4.12179
145 1 44.2415 3.31734 1.7221 -4.12179
62 1 46.9663 2.38582 1.715 -4.12179
65 1 47.8745 0.574342 3.13115 -4.12179
67 1 47.8745 0.574342 0.294102 -4.12179
149 1 48.7827 3.26578 3.12879 -4.12179
150 1 48.7827 3.26578 0.291733 -4.12179
66 1 49.691 1.4543 1.70789 -4.12179
69 1 51.5075 2.33427 3.12168 -4.12179
70 1 51.5075 2.33427 0.284628 -4.12179
68 1 52.4157 0.522785 1.70078 -4.12178
154 1 53.324 3.21423 1.69842 -4.12177
73 1 54.2322 1.40276 3.11457 -4.12187
75 1 54.2322 1.40276 0.277521 -4.12187
74 1 56.0487 2.2827 1.6913 -4.1212
77 1 56.9567 0.471596 3.10749 -4.12403
79 1 56.9567 0.471596 0.270433 -4.12403
161 1 57.865 3.16182 3.10505 -4.12178
162 1 57.865 3.16182 0.267996 -4.12178
78 1 58.7757 1.35011 1.68436 -4.08817
82 1 60.5807 2.23295 3.09886 -3.91525
83 1 60.5807 2.23295 0.261808 -3.91525
84 1 61.5541 0.355617 1.67498 -3.90585
1121 1 62.9748 2.43467 3.07414 -3.89723
1122 1 62.9748 2.43467 0.237089 -3.89723
1124 1 63.9595 0.568143 1.65003 -3.93741
1123 1 64.8433 3.22836 1.64957 -3.91012
1125 1 65.7827 1.48099 3.06343 -3.99193
1126 1 65.7827 1.48099 0.226374 -3.99193
1127 1 67.7404 2.17851 1.63217 -4.10296
1128 1 69.6709 1.37331 3.03392 -4.02531
1129 1 69.6709 1.37331 0.196869 -4.02531
1130 1 70.6222 3.12103 1.61087 -4.04796
1131 1 71.5031 0.435008 1.60931 -4.13901
1132 1 72.4264 2.22075 3.02518 -4.11515
1133 1 72.4264 2.22075 0.188124 -4.11515
1134 1 74.235 1.31087 1.60201 -4.11917
1135 1 75.1377 3.10866 3.0182 -4.12352
1136 1 75.1377 3.10866 0.181152 -4.12352
1137 1 76.0464 0.399995 3.01584 -4.12074
1138 1 76.0464 0.399995 0.178787 -4.12074
1139 1 76.9516 2.19634 1.59496 -4.12238
1140 1 78.7649 1.2844 3.00878 -4.122
1141 1 78.7649 1.2844 0.171728 -4.122
1142 1 79.6716 3.07981 1.5879 -4.12166
1143 1 80.5779 0.372565 1.58554 -4.12186
1144 1 81.4845 2.16808 3.00172 -4.12174
1145 1 81.4845 2.16808 0.164664 -4.12174
1146 1 83.2974 1.25633 1.57848 -4.12177
1147 1 85.1104 0.344572 2.9923 -4.12178
1148 1 84.2039 3.05192 2.99465 -4.1218
1149 1 85.1104 0.344572 0.155246 -4.12178
1150 1 84.2039 3.05192 0.157601 -4.1218
1151 1 86.0168 2.14015 1.57142 -4.12179
1152 1 87.8298 1.22839 2.98524 -4.12179
1153 1 87.8298 1.22839 0.148183 -4.12179
1154 1 88.7363 3.02396 1.56435 -4.12179
1155 1 89.6428 0.316622 1.562 -4.12179
1156 1 90.5492 2.1122 2.97817 -4.12179
1157 1 90.5492 2.1122 0.14112 -4.12179
1158 1 92.3622 1.20043 1.55494 -4.12179
1159 1 93.2687 2.99601 2.97111 -4.12179
1160 1 93.2687 2.99601 0.134057 -4.12179
1161 1 94.1751 0.288668 2.96875 -4.12179
1162 1 95.0816 2.08424 1.54787 -4.12179
1163 1 94.1751 0.288668 0.131702 -4.12179
1164 1 96.8946 1.17248 2.96169 -4.12179
1165 1 96.8946 1.17248 0.124639 -4.12179
1166 1 97.8011 2.96806 1.54081 -4.12179
1167 1 98.7075 0.260714 1.53846 -4.12179
1168 1 99.614 2.05629 2.95463 -4.12179
1169 1 99.614 2.05629 0.117576 -4.12179
1170 1 101.427 1.14453 1.53139 -4.12179
1171 1 102.333 2.9401 2.94757 -4.12179
1172 1 102.333 2.9401 0.110513 -4.12179
1173 1 103.24 0.232761 2.94521 -4.12179
1174 1 104.146 2.02834 1.52433 -4.12179
1175 1 103.24 0.232761 0.108159 -4.12179
1176 1 105.959 1.11657 2.93815 -4.12179
1177 1 105.959 1.11657 0.101096 -4.12179
1178 1 107.772 0.204807 1.51491 -4.12179
1179 1 106.866 2.91215 1.51727 -4.12179
1180 1 108.679 2.00038 2.93109 -4.12179
1181 1 108.679 2.00038 0.0940332 -4.12179
1182 1 110.492 1.08862 1.50785 -4.12178
1183 1 111.398 2.88419 2.92402 -4.1218
1184 1 111.398 2.88419 0.0869703 -4.1218
1185 1 112.305 0.176862 2.92167 -4.12177
1186 1 112.305 0.176862 0.0846161 -4.12177
1187 1 113.211 1.97242 1.50079 -4.12181
1532 1 115.024 1.06063 2.91461 -4.12186
2259 1 115.024 1.06063 0.0775532 -4.12186
1189 1 115.93 2.8563 1.49373 -4.12166
1190 1 117.743 1.94465 2.90754 -4.12144
1538 1 116.837 0.1488 1.49137 -4.122
2032 1 117.743 1.94465 0.0704916 -4.12144
1194 1 120.464 2.82745 2.90047 -4.12351
1540 1 119.556 1.0332 1.48431 -4.12074
2034 1 120.464 2.82745 0.063421 -4.12351
1542 1 121.367 0.122327 2.89814 -4.11917
2266 1 121.367 0.122327 0.0610886 -4.11917
1198 1 122.28 1.91437 1.47721 -4.12546
1201 1 124.98 2.81508 1.47075 -4.04801
1544 1 124.099 0.998199 2.89084 -4.13902
2267 1 124.099 0.998199 0.0537863 -4.13902
1203 1 126.722 1.89587 2.88771 -3.90023
2041 1 126.722 1.89587 0.0506593 -3.90023
1551 1 125.931 0.0598972 1.46624 -4.02523
86 1 -0.973872 4.45758 2.85536 -4.02516
87 1 -1.7655 6.30906 1.43515 -3.91134
90 1 0.860284 5.36753 1.43102 -4.14166
169 1 -0.0245806 7.20019 2.85123 -4.03228
91 1 2.68274 6.25158 2.84466 -4.1258
94 1 3.59619 4.44292 1.42365 -4.11827
96 1 5.41006 5.32117 2.83706 -4.11669
99 1 7.2217 6.19725 1.41092 -4.11587
179 1 4.50272 7.13317 1.42151 -4.12516
98 1 8.14998 4.3932 2.83974 -4.08319
101 1 9.95483 5.27481 1.47454 -3.96944
183 1 9.01759 7.09454 2.80251 -3.99786
340 1 12.1553 5.25091 3.56328 -3.84132
1065 1 12.1553 5.25091 0.726232 -3.84132
104 1 14.2015 4.71432 1.99 -3.97603
108 1 16.1127 5.42549 3.23956 -3.99799
109 1 16.1127 5.42549 0.402511 -3.99799
110 1 17.9087 6.32288 1.79411 -4.11622
112 1 18.8078 4.50389 3.20573 -4.12998
113 1 18.8078 4.50389 0.368683 -4.12998
195 1 19.7209 7.19926 3.20502 -4.11779
196 1 19.7209 7.19926 0.367969 -4.11779
111 1 20.6261 5.38596 1.78353 -4.1233
117 1 22.4433 6.26629 3.19745 -4.12229
118 1 22.4433 6.26629 0.360402 -4.12229
116 1 23.3522 4.45521 1.77659 -4.12145
120 1 25.1686 5.33508 3.19037 -4.12167
122 1 25.1686 5.33508 0.353318 -4.12167
200 1 24.2601 7.14642 1.77421 -4.12199
121 1 26.985 6.21501 1.76711 -4.12175
125 1 27.8932 4.4035 3.18326 -4.12181
127 1 27.8932 4.4035 0.346211 -4.12181
207 1 28.8014 7.09496 3.18089 -4.12177
208 1 28.8014 7.09496 0.343842 -4.12177
126 1 29.7097 5.28347 1.76 -4.12179
128 1 32.4344 4.35196 1.75289 -4.12178
129 1 31.5262 6.16343 3.17379 -4.12179
130 1 31.5262 6.16343 0.336736 -4.12179
213 1 33.3426 7.0434 1.75053 -4.12179
131 1 34.2509 5.23192 3.16668 -4.12179
132 1 34.2509 5.23192 0.329631 -4.12179
135 1 36.0674 6.11188 1.74342 -4.12179
134 1 36.9756 4.3004 3.15958 -4.12179
136 1 36.9756 4.3004 0.322525 -4.12179
139 1 38.7921 5.18037 1.73631 -4.12179
220 1 37.8838 6.99184 3.15721 -4.12179
221 1 37.8838 6.99184 0.320156 -4.12179
140 1 40.6086 6.06033 3.1501 -4.12179
141 1 40.6086 6.06033 0.31305 -4.12179
142 1 41.5168 4.24885 1.72921 -4.12179
225 1 42.4251 6.94029 1.72684 -4.12179
143 1 43.3333 5.12881 3.143 -4.12179
144 1 43.3333 5.12881 0.305945 -4.12179
147 1 45.1498 6.00878 1.71973 -4.12179
146 1 46.058 4.1973 3.13589 -4.12179
148 1 46.058 4.1973 0.298839 -4.12179
151 1 47.8745 5.07726 1.71263 -4.12179
229 1 46.9663 6.88874 3.13352 -4.12179
230 1 46.9663 6.88874 0.296471 -4.12179
152 1 49.691 5.95722 3.12642 -4.12179
153 1 49.691 5.95722 0.289365 -4.12179
155 1 50.5992 4.14574 1.70552 -4.12178
237 1 51.5075 6.83718 1.70315 -4.12179
156 1 52.4157 5.0257 3.11931 -4.12178
157 1 52.4157 5.0257 0.282259 -4.12178
158 1 55.1404 4.09415 3.11221 -4.12176
159 1 54.2322 5.90568 1.69605 -4.12187
160 1 55.1404 4.09415 0.275155 -4.12176
243 1 56.0487 6.78562 3.10983 -4.1212
244 1 56.0487 6.78562 0.272778 -4.1212
163 1 56.9567 4.97451 1.68896 -4.12403
164 1 59.6748 4.05472 1.68146 -4.00083
165 1 58.7757 5.85303 3.10288 -4.08817
166 1 58.7757 5.85303 0.26583 -4.08817
167 1 61.5541 4.85853 3.09351 -3.90585
168 1 61.5541 4.85853 0.256456 -3.90585
251 1 60.5807 6.73587 1.68033 -3.91525
1206 1 62.9748 6.93759 1.65561 -3.89723
1207 1 63.9595 5.07106 3.06856 -3.93741
1208 1 63.9595 5.07106 0.231504 -3.93741
1211 1 65.7827 5.98391 1.6449 -3.99193
1209 1 66.5765 4.1329 3.06534 -3.90988
1210 1 66.5765 4.1329 0.228286 -3.90988
1212 1 67.7404 6.68142 3.05069 -4.10296
1213 1 67.7404 6.68142 0.213642 -4.10296
1214 1 68.8797 4.04012 3.03093 -3.90002
1215 1 68.8797 4.04012 0.193882 -3.90002
1216 1 69.6709 5.87623 1.61539 -4.02531
1217 1 71.5031 4.93793 3.02784 -4.13901
1218 1 72.4264 6.72367 1.60665 -4.11515
1219 1 71.5031 4.93793 0.190789 -4.13901
1220 1 73.3221 4.02175 1.60441 -4.12547
1221 1 74.235 5.81378 3.02054 -4.11917
1222 1 74.235 5.81378 0.183484 -4.11917
1223 1 76.0464 4.90291 1.59731 -4.12074
1224 1 76.9516 6.69926 3.01349 -4.12238
1225 1 76.9516 6.69926 0.176438 -4.12238
1226 1 78.7649 5.78731 1.59025 -4.122
1227 1 77.8588 3.99147 3.01113 -4.12144
1228 1 77.8588 3.99147 0.174081 -4.12144
1229 1 80.5779 4.87548 3.00407 -4.12186
1230 1 80.5779 4.87548 0.167019 -4.12186
1231 1 81.4845 6.671 1.58319 -4.12174
1232 1 82.3909 3.96369 1.58084 -4.12181
1233 1 83.2974 5.75925 2.99701 -4.12177
1234 1 83.2974 5.75925 0.159955 -4.12177
1235 1 85.1104 4.84749 1.57377 -4.12178
1236 1 86.0168 6.64307 2.98994 -4.12179
1237 1 86.0168 6.64307 0.152892 -4.12179
1238 1 86.9233 3.93573 2.98759 -4.12179
1239 1 86.9233 3.93573 0.150538 -4.12179
1240 1 87.8298 5.73131 1.56671 -4.12179
1241 1 89.6428 4.81954 2.98053 -4.12179
1242 1 89.6428 4.81954 0.143474 -4.12179
1243 1 91.4557 3.90777 1.55729 -4.12179
1244 1 90.5492 6.61512 1.55965 -4.12179
1245 1 92.3622 5.70335 2.97346 -4.12179
1246 1 92.3622 5.70335 0.136411 -4.12179
1247 1 94.1751 4.79159 1.55023 -4.12179
1248 1 95.0816 6.58716 2.9664 -4.12179
1249 1 95.0816 6.58716 0.129348 -4.12179
1250 1 95.9881 3.87982 2.96405 -4.12179
1251 1 95.9881 3.87982 0.126994 -4.12179
1252 1 96.8946 5.6754 1.54317 -4.12179
1253 1 98.7075 4.76363 2.95698 -4.12179
1254 1 98.7075 4.76363 0.119931 -4.12179
1255 1 99.614 6.55921 1.5361 -4.12179
1256 1 101.427 5.64744 2.94992 -4.12179
1257 1 100.52 3.85187 1.53375 -4.12179
1258 1 101.427 5.64744 0.112868 -4.12179
1259 1 103.24 4.73568 1.52668 -4.12179
1260 1 104.146 6.53125 2.94286 -4.12179
1261 1 104.146 6.53125 0.105805 -4.12179
1262 1 105.053 3.82391 2.9405 -4.12179
1263 1 105.053 3.82391 0.10345 -4.12179
1264 1 105.959 5.61949 1.51962 -4.12179
1265 1 107.772 4.70772 2.93344 -4.12179
1266 1 107.772 4.70772 0.0963875 -4.12179
1267 1 108.679 6.5033 1.51256 -4.12179
1268 1 110.492 5.59154 2.92638 -4.12178
1269 1 109.585 3.79596 1.5102 -4.12179
1270 1 110.492 5.59154 0.0893247 -4.12178
1271 1 112.305 4.67978 1.50314 -4.12177
1273 1 115.024 5.56355 1.49608 -4.12186
1274 1 113.211 6.47534 2.91931 -4.12181
1275 1 113.211 6.47534 0.0822618 -4.12181
1375 1 114.118 3.76803 0.0799077 -4.12174
1807 1 114.118 3.76803 2.91696 -4.12174
1192 1 118.651 3.73977 1.48666 -4.12238
1193 1 116.837 4.65172 2.9099 -4.122
1278 1 117.743 6.44756 1.48902 -4.12144
2033 1 116.837 4.65172 0.0728443 -4.122
1196 1 121.367 4.62524 1.47961 -4.11917
1280 1 119.556 5.53612 2.90284 -4.12074
2091 1 119.556 5.53612 0.0657856 -4.12074
1200 1 123.176 3.71535 2.8935 -4.11517
2038 1 123.176 3.71535 0.0564491 -4.11517
1283 1 122.28 6.41729 2.89574 -4.12546
1286 1 124.099 5.50112 1.47231 -4.13902
2093 1 122.28 6.41729 0.0586854 -4.12546
1205 1 127.862 3.75799 1.44959 -4.09935
1202 1 125.931 4.56282 2.88477 -4.02523
1291 1 126.722 6.39878 1.46919 -3.90023
2039 1 125.931 4.56282 0.0477188 -4.02523
170 1 -0.973872 8.9605 1.43684 -4.02516
175 1 0.860284 9.87045 2.84955 -4.14166
253 1 -1.7655 10.812 2.85368 -3.91134
174 1 1.78457 8.06771 1.42838 -4.11535
177 1 3.59619 8.94584 2.84217 -4.11827
259 1 2.68274 10.7545 1.42614 -4.1258
180 1 6.32183 8.01579 2.83635 -4.1306
181 1 5.41006 9.82409 1.41854 -4.11669
266 1 7.2217 10.7002 2.82944 -4.11587
184 1 8.14998 8.89612 1.42122 -4.08319
186 1 9.95483 9.77773 2.89307 -3.96944
187 1 9.95483 9.77773 0.056014 -3.96944
105 1 12.9748 7.26907 2.4789 -3.84133
188 1 10.9287 7.80565 1.21511 -3.97599
897 1 12.1553 9.75383 2.14476 -3.84132
191 1 15.1752 7.2451 1.73051 -3.96936
189 1 14.2015 9.21724 3.40853 -3.97603
190 1 14.2015 9.21724 0.571478 -3.97603
194 1 16.1127 9.9284 1.82104 -3.99799
192 1 16.98 8.12665 3.20234 -4.08298
193 1 16.98 8.12665 0.365292 -4.08298
197 1 18.8078 9.0068 1.78721 -4.12998
278 1 17.9087 10.8258 3.21264 -4.11622
279 1 17.9087 10.8258 0.375589 -4.11622
198 1 20.6261 9.88888 3.20205 -4.1233
199 1 20.6261 9.88888 0.365 -4.1233
201 1 21.5362 8.07841 1.78137 -4.12104
283 1 22.4433 10.7692 1.77893 -4.12229
202 1 23.3522 8.95813 3.19511 -4.12145
203 1 23.3522 8.95813 0.358061 -4.12145
204 1 26.0767 8.02644 3.188 -4.12185
205 1 25.1686 9.838 1.77184 -4.12167
206 1 26.0767 8.02644 0.350948 -4.12185
289 1 26.985 10.7179 3.18563 -4.12175
290 1 26.985 10.7179 0.34858 -4.12175
209 1 27.8932 8.90642 1.76474 -4.12181
211 1 29.7097 9.78639 3.17853 -4.12179
212 1 29.7097 9.78639 0.341474 -4.12179
210 1 30.6179 7.97492 1.75763 -4.12178
214 1 32.4344 8.85488 3.17142 -4.12178
215 1 32.4344 8.85488 0.334368 -4.12178
297 1 31.5262 10.6664 1.75526 -4.12179
216 1 34.2509 9.73484 1.74816 -4.12179
217 1 35.1591 7.92336 3.16431 -4.12179
219 1 35.1591 7.92336 0.327262 -4.12179
301 1 36.0674 10.6148 3.16195 -4.12179
302 1 36.0674 10.6148 0.324893 -4.12179
218 1 36.9756 8.80332 1.74105 -4.12179
223 1 38.7921 9.68328 3.15484 -4.12179
224 1 38.7921 9.68328 0.317788 -4.12179
222 1 39.7003 7.87181 1.73395 -4.12179
226 1 41.5168 8.75177 3.14773 -4.12179
228 1 41.5168 8.75177 0.310682 -4.12179
309 1 40.6086 10.5632 1.73158 -4.12179
227 1 43.3333 9.63173 1.72447 -4.12179
232 1 44.2415 7.82025 3.14063 -4.12179
233 1 44.2415 7.82025 0.303576 -4.12179
313 1 45.1498 10.5117 3.13826 -4.12179
314 1 45.1498 10.5117 0.301208 -4.12179
231 1 46.058 8.70022 1.71737 -4.12179
234 1 48.7827 7.7687 1.71026 -4.12179
235 1 47.8745 9.58018 3.13115 -4.12179
236 1 47.8745 9.58018 0.294102 -4.12179
319 1 49.691 10.4601 1.70789 -4.12179
238 1 50.5992 8.64866 3.12405 -4.12178
241 1 50.5992 8.64866 0.286996 -4.12178
239 1 53.324 7.71715 3.11694 -4.12177
240 1 52.4157 9.52862 1.70078 -4.12178
242 1 53.324 7.71715 0.279891 -4.12177
245 1 55.1404 8.59707 1.69368 -4.12176
326 1 54.2322 10.4086 3.11457 -4.12187
327 1 54.2322 10.4086 0.277521 -4.12187
246 1 57.865 7.66474 1.68652 -4.12178
248 1 56.9567 9.47743 3.10749 -4.12403
250 1 56.9567 9.47743 0.270433 -4.12403
247 1 59.6748 8.55764 3.09999 -4.00083
249 1 59.6748 8.55764 0.262938 -4.00083
331 1 58.7757 10.3559 1.68436 -4.08817
252 1 61.5541 9.36145 1.67498 -3.90585
1295 1 63.9595 9.57398 1.65003 -3.93741
1293 1 64.8433 7.73128 3.06809 -3.91012
1294 1 64.8433 7.73128 0.231039 -3.91012
1296 1 65.7827 10.4868 3.06343 -3.99193
1297 1 65.7827 10.4868 0.226374 -3.99193
1298 1 66.5765 8.63582 1.64681 -3.90988
1299 1 68.8797 8.54304 1.61241 -3.90002
1300 1 69.6709 10.3792 3.03392 -4.02531
1301 1 69.6709 10.3792 0.196869 -4.02531
1302 1 70.6222 7.62395 3.0294 -4.04796
1303 1 70.6222 7.62395 0.192345 -4.04796
1304 1 71.5031 9.44084 1.60931 -4.13901
1305 1 73.3221 8.52466 3.02294 -4.12547
1306 1 73.3221 8.52466 0.185888 -4.12547
1307 1 74.235 10.3167 1.60201 -4.11917
1308 1 75.1377 7.61158 1.59968 -4.12352
1309 1 76.0464 9.40583 3.01584 -4.12074
1310 1 76.0464 9.40583 0.178787 -4.12074
1311 1 78.7649 10.2902 3.00878 -4.122
1312 1 77.8588 8.49438 1.59261 -4.12144
1313 1 78.7649 10.2902 0.171728 -4.122
1314 1 79.6716 7.58273 3.00642 -4.12166
1315 1 79.6716 7.58273 0.169373 -4.12166
1316 1 80.5779 9.3784 1.58554 -4.12186
1317 1 82.3909 8.46661 2.99936 -4.12181
1318 1 82.3909 8.46661 0.16231 -4.12181
1319 1 83.2974 10.2622 1.57848 -4.12177
1320 1 84.2039 7.55484 1.57613 -4.1218
1321 1 85.1104 9.35041 2.9923 -4.12178
1322 1 85.1104 9.35041 0.155246 -4.12178
1323 1 86.9233 8.43864 1.56906 -4.12179
1324 1 88.7363 7.52688 2.98288 -4.12179
1325 1 88.7363 7.52688 0.145829 -4.12179
1326 1 87.8298 10.2342 2.98524 -4.12179
1327 1 87.8298 10.2342 0.148183 -4.12179
1328 1 89.6428 9.32246 1.562 -4.12179
1329 1 91.4557 8.41069 2.97582 -4.12179
1330 1 91.4557 8.41069 0.138765 -4.12179
1331 1 92.3622 10.2063 1.55494 -4.12179
1332 1 93.2687 7.49893 1.55258 -4.12179
1333 1 94.1751 9.2945 2.96875 -4.12179
1334 1 94.1751 9.2945 0.131702 -4.12179
1335 1 95.9881 8.38274 1.54552 -4.12179
1336 1 97.8011 7.47097 2.95934 -4.12179
1337 1 97.8011 7.47097 0.122285 -4.12179
1338 1 96.8946 10.1783 2.96169 -4.12179
1339 1 96.8946 10.1783 0.124639 -4.12179
1340 1 98.7075 9.26655 1.53846 -4.12179
1341 1 100.52 8.35478 2.95227 -4.12179
1342 1 100.52 8.35478 0.115222 -4.12179
1343 1 101.427 10.1504 1.53139 -4.12179
1344 1 102.333 7.44302 1.52904 -4.12179
1345 1 103.24 9.2386 2.94521 -4.12179
1346 1 103.24 9.2386 0.108159 -4.12179
1347 1 105.053 8.32683 1.52198 -4.12179
1348 1 105.959 10.1224 2.93815 -4.12179
1349 1 105.959 10.1224 0.101096 -4.12179
1350 1 106.866 7.41507 2.93579 -4.12179
1351 1 107.772 9.21064 1.51491 -4.12179
1352 1 106.866 7.41507 0.0987418 -4.12179
1353 1 111.398 7.38711 1.5055 -4.1218
1354 1 109.585 8.29888 2.92873 -4.12179
1355 1 109.585 8.29888 0.0916789 -4.12179
1356 1 110.492 10.0945 1.50785 -4.12178
1357 1 112.305 9.1827 2.92167 -4.12177
1358 1 112.305 9.1827 0.0846161 -4.12177
1359 1 115.024 10.0665 2.91461 -4.12186
1891 1 114.118 8.27095 1.49843 -4.12174
2144 1 115.024 10.0665 0.0775532 -4.12186
1276 1 115.93 7.35922 2.91225 -4.12166
1279 1 118.651 8.24269 2.90519 -4.12238
1364 1 116.837 9.15464 1.49137 -4.122
2088 1 115.93 7.35922 0.0751994 -4.12166
2090 1 118.651 8.24269 0.0681347 -4.12238
1282 1 120.464 7.33037 1.48195 -4.12351
1366 1 119.556 10.039 1.48431 -4.12074
1367 1 121.367 9.12816 2.89814 -4.11917
2149 1 121.367 9.12816 0.0610886 -4.11917
1284 1 124.98 7.31799 2.88928 -4.04801
2095 1 124.98 7.31799 0.0522239 -4.04801
1288 1 123.176 8.21827 1.47498 -4.11517
1371 1 124.099 10.004 2.89084 -4.13902
2152 1 124.099 10.004 0.0537863 -4.13902
1292 1 127.862 8.26091 2.86811 -4.09935
1377 1 125.931 9.06573 1.46624 -4.02523
256 1 -0.973872 13.4634 2.85536 -4.02516
257 1 -0.0245806 11.7031 1.4327 -4.03228
342 1 0.860284 14.3734 1.43102 -4.14166
260 1 1.78457 12.5706 2.8469 -4.11535
262 1 3.59619 13.4488 1.42365 -4.11827
263 1 4.50272 11.6361 2.84004 -4.12516
264 1 6.32183 12.5187 1.41783 -4.1306
346 1 5.41006 14.327 2.83706 -4.11669
267 1 9.01759 11.5975 1.38398 -3.99786
268 1 8.14998 13.399 2.83974 -4.08319
354 1 9.95483 14.2806 1.47454 -3.96944
173 1 12.1553 14.2567 3.56328 -3.84132
271 1 12.9748 11.772 1.06038 -3.84133
272 1 10.9287 12.3086 2.63364 -3.97599
955 1 12.1553 14.2567 0.726232 -3.84132
273 1 14.2015 13.7202 1.99 -3.97603
276 1 15.1752 11.748 3.14903 -3.96936
277 1 15.1752 11.748 0.311981 -3.96936
358 1 16.1127 14.4313 3.23956 -3.99799
359 1 16.1127 14.4313 0.402511 -3.99799
275 1 16.98 12.6296 1.78382 -4.08298
280 1 19.7209 11.7022 1.78649 -4.11779
281 1 18.8078 13.5097 3.20573 -4.12998
282 1 18.8078 13.5097 0.368683 -4.12998
364 1 20.6261 14.3918 1.78353 -4.1233
284 1 21.5362 12.5813 3.1999 -4.12104
287 1 21.5362 12.5813 0.362849 -4.12104
285 1 23.3522 13.461 1.77659 -4.12145
286 1 24.2601 11.6493 3.19273 -4.12199
288 1 24.2601 11.6493 0.355683 -4.12199
291 1 26.0767 12.5294 1.76947 -4.12185
371 1 25.1686 14.3409 3.19037 -4.12167
372 1 25.1686 14.3409 0.353318 -4.12167
292 1 28.8014 11.5979 1.76237 -4.12177
294 1 27.8932 13.4093 3.18326 -4.12181
296 1 27.8932 13.4093 0.346211 -4.12181
376 1 29.7097 14.2893 1.76 -4.12179
293 1 30.6179 12.4778 3.17616 -4.12178
295 1 30.6179 12.4778 0.339105 -4.12178
299 1 32.4344 13.3578 1.75289 -4.12178
298 1 33.3426 11.5463 3.16905 -4.12179
300 1 33.3426 11.5463 0.331999 -4.12179
303 1 35.1591 12.4263 1.74579 -4.12179
383 1 34.2509 14.2378 3.16668 -4.12179
384 1 34.2509 14.2378 0.329631 -4.12179
304 1 36.9756 13.3062 3.15958 -4.12179
305 1 36.9756 13.3062 0.322525 -4.12179
306 1 37.8838 11.4948 1.73868 -4.12179
388 1 38.7921 14.1862 1.73631 -4.12179
307 1 39.7003 12.3747 3.15247 -4.12179
308 1 39.7003 12.3747 0.315419 -4.12179
310 1 42.4251 11.4432 3.14537 -4.12179
311 1 41.5168 13.2547 1.72921 -4.12179
312 1 42.4251 11.4432 0.308313 -4.12179
394 1 43.3333 14.1346 3.143 -4.12179
395 1 43.3333 14.1346 0.305945 -4.12179
315 1 44.2415 12.3232 1.7221 -4.12179
316 1 46.058 13.2031 3.13589 -4.12179
318 1 46.058 13.2031 0.298839 -4.12179
317 1 46.9663 11.3917 1.715 -4.12179
320 1 48.7827 12.2716 3.12879 -4.12179
321 1 48.7827 12.2716 0.291733 -4.12179
402 1 47.8745 14.0831 1.71263 -4.12179
322 1 51.5075 11.3401 3.12168 -4.12179
324 1 50.5992 13.1516 1.70552 -4.12178
325 1 51.5075 11.3401 0.284628 -4.12179
323 1 53.324 12.2201 1.69842 -4.12177
406 1 52.4157 14.0315 3.11931 -4.12178
407 1 52.4157 14.0315 0.282259 -4.12178
329 1 55.1404 13.1 3.11221 -4.12176
330 1 55.1404 13.1 0.275155 -4.12176
328 1 56.0487 11.2885 1.6913 -4.1212
332 1 57.865 12.1677 3.10505 -4.12178
334 1 57.865 12.1677 0.267996 -4.12178
414 1 56.9567 13.9803 1.68896 -4.12403
333 1 59.6748 13.0606 1.68146 -4.00083
335 1 60.5807 11.2388 3.09886 -3.91525
336 1 60.5807 11.2388 0.261808 -3.91525
419 1 61.5541 13.8644 3.09351 -3.90585
420 1 61.5541 13.8644 0.256456 -3.90585
1379 1 62.9748 11.4405 3.07414 -3.89723
1380 1 62.9748 11.4405 0.237089 -3.89723
1381 1 63.9595 14.0769 3.06856 -3.93741
1382 1 63.9595 14.0769 0.231504 -3.93741
1383 1 64.8433 12.2342 1.64957 -3.91012
1384 1 66.5765 13.1387 3.06534 -3.90988
1385 1 66.5765 13.1387 0.228286 -3.90988
1386 1 67.7404 11.1843 1.63217 -4.10296
1387 1 68.8797 13.046 3.03093 -3.90002
1388 1 68.8797 13.046 0.193882 -3.90002
1389 1 70.6222 12.1269 1.61087 -4.04796
1390 1 72.4264 11.2266 3.02518 -4.11515
1391 1 71.5031 13.9438 3.02784 -4.13901
1392 1 72.4264 11.2266 0.188124 -4.11515
1393 1 71.5031 13.9438 0.190789 -4.13901
1394 1 73.3221 13.0276 1.60441 -4.12547
1395 1 75.1377 12.1145 3.0182 -4.12352
1396 1 75.1377 12.1145 0.181152 -4.12352
1397 1 76.0464 13.9087 1.59731 -4.12074
1398 1 76.9516 11.2022 1.59496 -4.12238
1399 1 77.8588 12.9973 3.01113 -4.12144
1400 1 77.8588 12.9973 0.174081 -4.12144
1401 1 79.6716 12.0856 1.5879 -4.12166
1402 1 80.5779 13.8813 3.00407 -4.12186
1403 1 80.5779 13.8813 0.167019 -4.12186
1404 1 81.4845 11.1739 3.00172 -4.12174
1405 1 81.4845 11.1739 0.164664 -4.12174
1406 1 82.3909 12.9695 1.58084 -4.12181
1407 1 84.2039 12.0578 2.99465 -4.1218
1408 1 85.1104 13.8533 1.57377 -4.12178
1409 1 84.2039 12.0578 0.157601 -4.1218
1410 1 86.0168 11.146 1.57142 -4.12179
1411 1 86.9233 12.9416 2.98759 -4.12179
1412 1 86.9233 12.9416 0.150538 -4.12179
1413 1 88.7363 12.0298 1.56435 -4.12179
1414 1 89.6428 13.8254 2.98053 -4.12179
1415 1 89.6428 13.8254 0.143474 -4.12179
1416 1 90.5492 11.118 2.97817 -4.12179
1417 1 91.4557 12.9136 1.55729 -4.12179
1418 1 90.5492 11.118 0.14112 -4.12179
1419 1 93.2687 12.0018 2.97111 -4.12179
1420 1 93.2687 12.0018 0.134057 -4.12179
1421 1 95.0816 11.0901 1.54787 -4.12179
1422 1 94.1751 13.7974 1.55023 -4.12179
1423 1 95.9881 12.8857 2.96405 -4.12179
1424 1 95.9881 12.8857 0.126994 -4.12179
1425 1 97.8011 11.9739 1.54081 -4.12179
1426 1 98.7075 13.7695 2.95698 -4.12179
1427 1 98.7075 13.7695 0.119931 -4.12179
1428 1 99.614 11.0621 2.95463 -4.12179
1429 1 99.614 11.0621 0.117576 -4.12179
1430 1 100.52 12.8577 1.53375 -4.12179
1431 1 102.333 11.9459 2.94757 -4.12179
1432 1 102.333 11.9459 0.110513 -4.12179
1433 1 104.146 11.0342 1.52433 -4.12179
1434 1 103.24 13.7415 1.52668 -4.12179
1435 1 105.053 12.8297 2.9405 -4.12179
1436 1 105.053 12.8297 0.10345 -4.12179
1437 1 106.866 11.918 1.51727 -4.12179
1438 1 107.772 13.7136 2.93344 -4.12179
1439 1 107.772 13.7136 0.0963875 -4.12179
1440 1 108.679 11.0062 2.93109 -4.12179
1441 1 108.679 11.0062 0.0940332 -4.12179
1442 1 111.398 11.89 2.92402 -4.1218
1443 1 109.585 12.8018 1.5102 -4.12179
1444 1 111.398 11.89 0.0869703 -4.1218
1445 1 112.305 13.6856 1.50314 -4.12177
1446 1 113.211 10.9783 1.50079 -4.12181
1549 1 114.118 12.7739 0.0799077 -4.12174
1981 1 114.118 12.7739 2.91696 -4.12174
1361 1 115.93 11.8621 1.49373 -4.12166
1363 1 117.743 10.9505 2.90754 -4.12144
1450 1 116.837 13.6576 2.9099 -4.122
1451 1 118.651 12.7456 1.48666 -4.12238
2147 1 117.743 10.9505 0.0704916 -4.12144
2204 1 116.837 13.6576 0.0728443 -4.122
1368 1 120.464 11.8333 2.90047 -4.12351
1456 1 121.367 13.6311 1.47961 -4.11917
2150 1 120.464 11.8333 0.063421 -4.12351
1370 1 122.28 10.9202 1.47721 -4.12546
1373 1 124.98 11.8209 1.47075 -4.04801
1458 1 123.176 12.7212 2.8935 -4.11517
2210 1 123.176 12.7212 0.0564491 -4.11517
1378 1 126.722 10.9017 2.88771 -3.90023
2156 1 126.722 10.9017 0.0506593 -3.90023
1462 1 125.931 13.5687 2.88477 -4.02523
1464 1 127.862 12.7638 1.44959 -4.09935
2212 1 125.931 13.5687 0.0477188 -4.02523
4 1 -0.973872 17.9663 1.43684 -4.02516
338 1 -1.7655 15.3149 1.43515 -3.91134
339 1 -0.0245806 16.206 2.85123 -4.03228
8 1 3.59619 17.9517 2.84217 -4.11827
343 1 1.78457 17.0735 1.42838 -4.11535
344 1 2.68274 15.2574 2.84466 -4.1258
347 1 6.32183 17.0216 2.83635 -4.1306
348 1 4.50272 16.139 1.42151 -4.12516
351 1 7.2217 15.2031 1.41092 -4.11587
15 1 8.14998 17.902 1.42122 -4.08319
352 1 9.01759 16.1004 2.80251 -3.99786
355 1 10.9287 16.8115 1.21511 -3.97599
356 1 12.9748 16.2749 2.4789 -3.84133
362 1 15.1752 16.2509 1.73051 -3.96936
360 1 16.98 17.1325 3.20234 -4.08298
361 1 16.98 17.1325 0.365292 -4.08298
30 1 18.8078 18.0126 1.78721 -4.12998
363 1 17.9087 15.3287 1.79411 -4.11622
365 1 19.7209 16.2051 3.20502 -4.11779
366 1 19.7209 16.2051 0.367969 -4.11779
367 1 21.5362 17.0842 1.78137 -4.12104
368 1 22.4433 15.2721 3.19745 -4.12229
370 1 22.4433 15.2721 0.360402 -4.12229
34 1 23.3522 17.964 3.19511 -4.12145
35 1 23.3522 17.964 0.358061 -4.12145
369 1 24.2601 16.1523 1.77421 -4.12199
373 1 26.0767 17.0323 3.188 -4.12185
375 1 26.0767 17.0323 0.350948 -4.12185
374 1 26.985 15.2208 1.76711 -4.12175
42 1 27.8932 17.9123 1.76474 -4.12181
378 1 28.8014 16.1008 3.18089 -4.12177
379 1 28.8014 16.1008 0.343842 -4.12177
46 1 32.4344 17.8607 3.17142 -4.12178
47 1 32.4344 17.8607 0.334368 -4.12178
377 1 30.6179 16.9808 1.75763 -4.12178
381 1 31.5262 15.1693 3.17379 -4.12179
382 1 31.5262 15.1693 0.336736 -4.12179
380 1 33.3426 16.0492 1.75053 -4.12179
385 1 35.1591 16.9292 3.16431 -4.12179
386 1 36.0674 15.1177 1.74342 -4.12179
387 1 35.1591 16.9292 0.327262 -4.12179
51 1 36.9756 17.8092 1.74105 -4.12179
390 1 37.8838 15.9977 3.15721 -4.12179
391 1 37.8838 15.9977 0.320156 -4.12179
389 1 39.7003 16.8776 1.73395 -4.12179
59 1 41.5168 17.7576 3.14773 -4.12179
60 1 41.5168 17.7576 0.310682 -4.12179
392 1 40.6086 15.0662 3.1501 -4.12179
393 1 40.6086 15.0662 0.31305 -4.12179
396 1 42.4251 15.9461 1.72684 -4.12179
397 1 44.2415 16.8261 3.14063 -4.12179
398 1 45.1498 15.0146 1.71973 -4.12179
400 1 44.2415 16.8261 0.303576 -4.12179
64 1 46.058 17.7061 1.71737 -4.12179
399 1 46.9663 15.8946 3.13352 -4.12179
401 1 46.9663 15.8946 0.296471 -4.12179
403 1 48.7827 16.7745 1.71026 -4.12179
404 1 49.691 14.9631 3.12642 -4.12179
405 1 49.691 14.9631 0.289365 -4.12179
71 1 50.5992 17.6545 3.12405 -4.12178
72 1 50.5992 17.6545 0.286996 -4.12178
409 1 51.5075 15.843 1.70315 -4.12179
408 1 53.324 16.723 3.11694 -4.12177
410 1 53.324 16.723 0.279891 -4.12177
76 1 55.1404 17.6029 1.69368 -4.12176
411 1 54.2322 14.9115 1.69605 -4.12187
412 1 56.0487 15.7915 3.10983 -4.1212
413 1 56.0487 15.7915 0.272778 -4.1212
415 1 57.865 16.6706 1.68652 -4.12178
80 1 59.6748 17.5635 3.09999 -4.00083
81 1 59.6748 17.5635 0.262938 -4.00083
416 1 58.7757 14.8589 3.10288 -4.08817
417 1 58.7757 14.8589 0.26583 -4.08817
418 1 60.5807 15.7417 1.68033 -3.91525
1467 1 62.9748 15.9434 1.65561 -3.89723
1468 1 64.8433 16.7371 3.06809 -3.91012
1469 1 64.8433 16.7371 0.231039 -3.91012
1470 1 65.7827 14.9897 1.6449 -3.99193
1471 1 66.5765 17.6417 1.64681 -3.90988
1472 1 67.7404 15.6873 3.05069 -4.10296
1473 1 67.7404 15.6873 0.213642 -4.10296
1474 1 68.8797 17.5489 1.61241 -3.90002
1475 1 69.6709 14.8821 1.61539 -4.02531
1476 1 70.6222 16.6298 3.0294 -4.04796
1477 1 70.6222 16.6298 0.192345 -4.04796
1478 1 72.4264 15.7295 1.60665 -4.11515
1479 1 73.3221 17.5305 3.02294 -4.12547
1480 1 73.3221 17.5305 0.185888 -4.12547
1481 1 74.235 14.8196 3.02054 -4.11917
1482 1 74.235 14.8196 0.183484 -4.11917
1483 1 75.1377 16.6174 1.59968 -4.12352
1484 1 76.9516 15.7051 3.01349 -4.12238
1485 1 76.9516 15.7051 0.176438 -4.12238
1486 1 78.7649 14.7931 1.59025 -4.122