ITEM: TIMESTEP
4061
ITEM: NUMBER OF ATOMS
12419
ITEM: BOX BOUNDS pp pp pp
4.9882026782137839e-01 1.2589741773217864e+02
2.4479230757017682e-02 4.5117034769242970e+01
1.5346552755062321e-02 2.5679653447244931e+01
ITEM: ATOMS id type x y z
1 1 2.1121 1.01388 1.43497
2 1 0.959995 2.92615 2.86077
3 1 5.64438 2.81403 1.43497
4 1 3.8436 1.92606 2.86077
5 1 6.53749 1.0043 2.86077
693 1 4.72355 0.0998449 1.43497
6 1 8.34858 1.90581 1.43497
696 1 9.25501 0.102665 2.86077
7 1 10.1578 2.80662 2.86077
8 1 11.0628 1.00258 1.43497
9 1 12.8709 1.9027 2.86077
10 1 14.6791 2.8029 1.43497
11 1 15.5832 0.998361 2.86077
702 1 13.7749 0.0980999 1.43497
12 1 17.3915 1.89861 1.43497
13 1 19.1999 2.79884 2.86077
705 1 18.2957 0.0941129 2.86077
14 1 20.104 0.994346 1.43498
15 1 21.9123 1.89458 2.86077
710 1 22.8165 0.0900834 1.43498
16 1 23.7206 2.79481 1.43498
17 1 24.6248 0.990319 2.86078
18 1 26.4331 1.89055 1.43498
19 1 28.2414 2.79079 2.86079
20 1 29.1456 0.986301 1.43499
713 1 27.3373 0.0860654 2.86078
21 1 30.9539 1.88654 2.8608
716 1 31.8581 0.0820623 1.43499
22 1 32.7622 2.78678 1.435
23 1 33.6665 0.982317 2.8608
24 1 35.4747 1.88257 1.43499
25 1 37.2831 2.78284 2.86077
26 1 38.1873 0.978393 1.43496
722 1 36.379 0.0781188 2.86078
27 1 39.9957 1.87871 2.8607
28 1 41.804 2.77901 1.43487
725 1 40.8999 0.0742685 1.43491
29 1 42.7084 0.974662 2.86057
30 1 44.517 1.8751 1.43473
728 1 45.4208 0.070498 2.86046
31 1 47.2291 0.970889 1.43463
32 1 46.3259 2.77573 2.86003
34 1 49.0379 1.87161 2.85962
35 1 50.846 2.77198 1.43391
36 1 51.7492 0.967243 2.85988
39 1 49.9408 0.0662705 1.43473
40 1 53.5569 1.86744 1.43404
41 1 54.4616 0.0636278 2.85986
43 1 56.2701 0.965168 1.43383
44 1 55.365 2.77065 2.85652
45 1 58.0772 1.87383 2.85369
48 1 59.8945 2.7709 1.43393
49 1 58.9732 0.0583614 1.43409
5940 1 60.7743 0.944947 2.85953
5941 1 62.5068 1.85572 1.43477
5944 1 64.8109 1.85553 1.43485
5949 1 66.5422 0.943373 2.86076
5951 1 67.4223 2.76952 1.43502
5946 1 68.3431 0.0553655 1.43501
5950 1 69.2361 1.86509 2.86081
5952 1 71.0472 0.963547 1.43501
5954 1 71.9535 2.76672 2.8608
5956 1 73.7613 1.86676 1.435
5958 1 72.8563 0.0627275 2.86081
5959 1 75.5694 0.966607 2.8608
5960 1 77.3776 0.0663703 1.43499
5963 1 76.4733 2.77121 1.43499
5962 1 78.2816 1.87092 2.86079
5965 1 80.09 0.970632 1.43499
5966 1 81.8983 0.0703628 2.86078
5968 1 80.9941 2.77512 2.86078
5970 1 82.8024 1.87486 1.43498
5971 1 84.6107 0.974594 2.86078
5972 1 86.4191 0.0743319 1.43498
5975 1 85.5149 2.77909 1.43498
5974 1 87.3232 1.87883 2.86077
5977 1 89.1315 0.97857 1.43498
5980 1 90.0357 2.78306 2.86077
5978 1 90.9398 0.0783139 2.86077
5982 1 91.844 1.88281 1.43497
5983 1 93.6523 0.982555 2.86077
5984 1 94.5565 2.78705 1.43497
5985 1 95.4606 0.0823012 1.43497
5987 1 96.3648 1.8868 2.86077
5989 1 98.1731 0.986545 1.43497
5991 1 99.9814 0.0862921 2.86077
5993 1 99.0772 2.79104 2.86077
5990 1 100.886 1.89079 1.43497
5995 1 102.694 0.990537 2.86077
5996 1 103.598 2.79504 1.43497
5997 1 104.502 0.0902843 1.43497
6000 1 105.406 1.89478 2.86077
5999 1 107.215 0.994532 1.43497
6003 1 109.023 0.0942805 2.86077
6005 1 108.119 2.79903 2.86077
6002 1 109.927 1.89877 1.43497
6008 1 111.735 0.998511 2.86077
6009 1 112.64 2.80305 1.43497
6006 1 113.544 0.0982326 1.43497
6012 1 114.448 1.90284 2.86077
6011 1 116.256 1.00269 1.43497
6014 1 118.97 1.90591 1.43497
6015 1 118.064 0.102762 2.86077
6017 1 117.161 2.80673 2.86077
6018 1 122.595 0.0999061 1.43497
6020 1 120.781 1.00438 2.86077
6021 1 121.674 2.8141 1.43497
6023 1 125.207 1.01392 1.43497
6024 1 123.475 1.92612 2.86077
50 1 2.8968 3.67996 1.43497
51 1 2.1121 5.52313 2.86077
52 1 3.84359 6.43532 1.43497
53 1 4.72354 4.6091 2.86077
54 1 6.53747 5.51356 1.43497
55 1 9.255 4.61191 1.43497
56 1 7.44828 3.71258 2.86077
57 1 8.34857 6.41507 2.86077
58 1 11.9664 3.70704 1.43497
59 1 11.0628 5.51183 2.86077
60 1 12.8709 6.41195 1.43497
61 1 15.5832 5.50761 1.43497
62 1 13.7748 4.60735 2.86077
63 1 16.4874 3.70312 2.86077
64 1 18.2957 4.60335 1.43497
65 1 17.3915 6.40785 2.86077
66 1 21.0082 3.69908 1.43498
67 1 21.9123 6.40382 1.43498
68 1 20.104 5.50358 2.86077
69 1 22.8165 4.59931 2.86077
70 1 24.6248 5.49955 1.43498
71 1 25.5289 3.69505 2.86078
72 1 27.3372 4.59528 1.43499
73 1 26.4331 6.39978 2.86078
74 1 29.1455 5.49552 2.86079
75 1 30.0497 3.69102 1.43499
76 1 30.9538 6.39576 1.435
77 1 31.858 4.59127 2.8608
78 1 33.6663 5.49151 1.435
79 1 34.5705 3.68703 2.8608
80 1 35.4746 6.39176 2.86081
81 1 36.3788 4.58728 1.43499
82 1 38.1871 5.48754 2.86078
83 1 39.0913 3.6831 1.43496
84 1 40.8997 4.58339 2.86069
85 1 39.9953 6.3878 1.43496
86 1 43.6125 3.67938 2.86047
87 1 42.7079 5.48365 1.43487
88 1 45.4209 4.57972 1.43464
89 1 44.5162 6.38394 2.86049
91 1 48.1351 3.67655 1.43415
92 1 47.2298 5.48019 2.85965
94 1 49.9491 4.57973 2.85382
95 1 51.7694 5.48615 1.41826
97 1 49.0379 6.38034 1.43399
98 1 52.6548 3.67504 2.85657
99 1 54.4638 4.57865 1.42764
101 1 53.5548 6.37492 2.86052
103 1 57.1603 3.68718 1.41802
104 1 56.2714 5.47102 2.86044
106 1 58.0749 6.37638 1.42774
107 1 58.9709 4.56627 2.85656
6025 1 60.7746 5.45275 1.43413
6026 1 61.7213 3.69932 2.85982
6028 1 63.6588 4.4526 1.43477
6091 1 62.5058 6.36475 2.85982
6030 1 65.5954 3.69863 2.86068
6032 1 66.5421 5.45256 1.43499
6097 1 64.8101 6.36452 2.86048
6033 1 68.3428 4.56465 2.86079
6035 1 70.1468 3.66606 1.43502
6036 1 71.0469 5.47287 2.86076
6099 1 69.2358 6.3744 1.43497
6037 1 72.8562 4.57202 1.43498
6108 1 73.7611 6.37604 2.86075
6038 1 75.5693 5.47588 1.43497
6040 1 74.6649 3.67156 2.86078
6042 1 77.3775 4.57565 2.86078
6045 1 79.1858 3.67538 1.43498
6046 1 80.09 5.47988 2.86078
6111 1 78.2816 6.38016 1.43498
6044 1 81.8983 4.57961 1.43498
6049 1 83.7066 3.67935 2.86078
6122 1 82.8024 6.3841 2.86077
6048 1 84.6108 5.48384 1.43498
6052 1 86.4191 4.58358 2.86077
6051 1 88.2274 3.68332 1.43498
6055 1 89.1315 5.48781 2.86077
6123 1 87.3232 6.38807 1.43498
6053 1 90.9399 4.58756 1.43497
6057 1 93.6523 5.4918 1.43497
6058 1 92.7482 3.6873 2.86077
6135 1 91.844 6.39205 2.86077
6061 1 95.4606 4.59155 2.86077
6137 1 96.3648 6.39604 1.43497
6060 1 97.2689 3.69129 1.43497
6062 1 99.9814 4.59554 1.43497
6064 1 98.1731 5.49579 2.86077
6066 1 102.694 5.49979 1.43497
6067 1 101.79 3.69529 2.86077
6144 1 100.886 6.40004 2.86077
6069 1 106.31 3.69928 1.43497
6071 1 104.502 4.59954 2.86077
6149 1 105.406 6.40404 1.43497
6072 1 107.215 5.50378 2.86077
6073 1 109.023 4.60353 1.43497
6076 1 111.735 5.50777 1.43497
6078 1 110.831 3.70329 2.86077
6155 1 109.927 6.40803 2.86077
6077 1 113.544 4.60749 2.86077
6079 1 115.352 3.70717 1.43497
6162 1 114.448 6.41209 1.43497
6081 1 116.256 5.51195 2.86077
6082 1 118.064 4.61202 1.43497
6168 1 118.97 6.41516 2.86077
6084 1 119.87 3.71267 2.86077
6086 1 120.781 5.51364 1.43497
6087 1 122.595 4.60916 2.86077
6088 1 124.422 3.68001 1.43497
6090 1 125.206 5.52318 2.86077
6174 1 123.475 6.43537 1.43497
109 1 0.959992 7.43541 1.43497
110 1 2.89679 8.18922 2.86077
112 1 4.72354 9.11836 1.43497
113 1 5.64437 7.32328 2.86077
114 1 7.44827 8.22184 1.43497
115 1 9.25499 9.12117 2.86077
116 1 10.1578 7.31587 1.43497
117 1 11.9664 8.21629 2.86077
118 1 13.7748 9.1166 1.43497
119 1 14.6791 7.31215 2.86077
120 1 16.4874 8.21237 1.43497
121 1 18.2957 9.1126 2.86077
122 1 19.1998 7.30809 1.43497
123 1 21.0081 8.20832 2.86077
124 1 22.8164 9.10856 1.43498
125 1 23.7206 7.30405 2.86077
126 1 25.5289 8.20428 1.43498
127 1 28.2414 7.30002 1.43499
128 1 27.3372 9.10452 2.86078
129 1 30.0496 8.20025 2.86079
130 1 31.8579 9.10049 1.435
131 1 32.7621 7.296 2.86081
132 1 34.5704 8.19624 1.435
133 1 37.2828 7.29201 1.435
134 1 36.3786 9.09649 2.86082
135 1 39.0911 8.19226 2.86079
136 1 40.8993 9.09252 1.43498
137 1 41.8036 7.28807 2.86071
138 1 43.6117 8.18832 1.43492
139 1 45.4201 9.08853 2.86057
141 1 46.3242 7.28417 1.43477
142 1 48.1331 8.18425 2.85995
144 1 49.9411 9.08429 1.43416
145 1 50.8485 7.27937 2.85675
147 1 52.6593 8.17829 1.42792
148 1 54.4606 9.08247 2.8605
150 1 55.364 7.27561 1.47264
151 1 57.1722 8.1757 2.86049
153 1 58.953 9.06269 1.41787
154 1 59.8913 7.27941 2.85662
6092 1 61.7201 8.2075 1.43399
6098 1 63.6569 8.96104 2.85974
6095 1 65.5947 8.20784 1.43483
6101 1 67.4216 7.27884 2.86066
6102 1 68.3422 9.07396 1.43497
6105 1 70.1464 8.17536 2.86069
6104 1 71.9533 7.276 1.43495
6110 1 72.8561 9.08122 2.86073
6107 1 74.6648 8.18078 1.43496
6113 1 76.4732 7.28045 2.86076
6114 1 77.3776 9.08485 1.43497
6117 1 79.1858 8.18461 2.86077
6116 1 80.9941 7.28435 1.43498
6119 1 81.8983 9.08884 2.86077
6121 1 83.7066 8.18858 1.43498
6126 1 85.5149 7.28832 2.86077
6128 1 86.4191 9.09281 1.43498
6127 1 88.2274 8.19256 2.86077
6129 1 90.0357 7.29231 1.43497
6131 1 90.9399 9.0968 2.86077
6133 1 92.7482 8.19655 1.43497
6136 1 94.5565 7.2963 2.86077
6140 1 95.4606 9.10079 1.43497
6139 1 97.269 8.20054 2.86077
6142 1 99.0773 7.30029 1.43497
6145 1 99.9814 9.10479 2.86077
6147 1 101.79 8.20454 1.43497
6148 1 103.598 7.30429 2.86077
6151 1 104.502 9.10879 1.43497
6152 1 106.31 8.20854 2.86077
6154 1 108.119 7.30828 1.43497
6157 1 109.023 9.11279 2.86077
6159 1 110.831 8.21254 1.43497
6160 1 112.64 7.3123 2.86077
6161 1 113.544 9.11675 1.43497
6164 1 115.352 8.21642 2.86077
6167 1 117.161 7.31598 1.43497
6170 1 118.064 9.12128 2.86077
6166 1 119.87 8.22193 1.43497
6172 1 121.674 7.32336 2.86077
6173 1 122.595 9.11842 1.43497
6176 1 124.422 8.18927 2.86077
111 1 2.1121 10.0324 1.43497
156 1 2.8968 12.6985 1.43497
157 1 0.959995 11.9447 2.86077
158 1 6.53747 10.0228 2.86077
159 1 5.64437 11.8325 1.43497
160 1 3.84359 10.9446 2.86077
161 1 8.34856 10.9243 1.43497
162 1 7.44828 12.7311 2.86077
163 1 11.0628 10.0211 1.43497
164 1 10.1578 11.8251 2.86077
165 1 11.9664 12.7256 1.43497
166 1 12.8709 10.9212 2.86077
167 1 15.5832 10.0169 2.86077
168 1 14.6791 11.8214 1.43497
169 1 16.4874 12.7216 2.86077
170 1 17.3915 10.9171 1.43497
171 1 19.1998 11.8173 2.86077
172 1 20.104 10.0128 1.43497
173 1 21.0081 12.7176 1.43497
174 1 21.9123 10.9131 2.86077
175 1 24.6247 10.0088 2.86077
176 1 23.7206 11.8133 1.43498
177 1 25.5289 12.7135 2.86077
178 1 29.1455 10.0048 1.43499
179 1 26.433 10.909 1.43498
180 1 28.2413 11.8093 2.86078
181 1 30.0496 12.7095 1.43499
182 1 30.9538 10.905 2.8608
183 1 33.6662 10.0007 2.86081
184 1 32.762 11.8052 1.435
185 1 34.5703 12.7055 2.86081
186 1 35.4744 10.901 1.43501
187 1 38.1869 9.99674 1.43501
188 1 37.2827 11.8012 2.86082
189 1 39.091 12.7015 1.43501
190 1 39.9951 10.897 2.8608
191 1 41.8033 11.7972 1.43499
192 1 42.7076 9.99276 2.86074
193 1 43.6117 12.6974 2.86074
194 1 44.5157 10.893 1.43494
195 1 47.2281 9.98877 1.43483
196 1 46.3241 11.7931 2.86057
197 1 48.1323 12.6932 1.43476
199 1 51.7521 9.983 2.85673
200 1 49.0371 10.8885 2.85994
201 1 50.8456 11.7879 1.43396
204 1 53.5669 10.8637 1.41814
205 1 52.6573 12.6808 2.85376
207 1 56.2682 9.9747 1.42757
208 1 55.3634 11.7807 2.85652
209 1 58.0795 10.8794 2.8565
212 1 57.1705 12.6833 1.43403
213 1 59.8936 11.7866 1.43368
6177 1 60.7651 9.95701 2.85332
6178 1 62.5035 10.871 1.43372
6179 1 61.7205 12.7152 2.85923
6182 1 64.8088 10.8737 1.43482
6184 1 65.5946 12.7165 2.86058
6186 1 67.4215 11.7877 1.43492
6188 1 66.5409 9.96187 2.86072
6189 1 69.2356 10.8835 2.86069
6190 1 71.0468 9.98202 1.43494
6193 1 70.1466 12.6843 1.43494
6192 1 71.9534 11.7851 2.86073
6195 1 73.7612 10.8852 1.43496
6196 1 75.5693 9.98506 2.86076
6198 1 74.6649 12.6899 2.86076
6200 1 76.4733 11.7896 1.43497
6201 1 78.2817 10.8894 2.86077
6202 1 80.09 9.98909 1.43498
6205 1 79.1859 12.6938 1.43498
6204 1 80.9942 11.7936 2.86077
6207 1 82.8025 10.8933 1.43498
6210 1 83.7067 12.6978 2.86077
6208 1 84.6108 9.99307 2.86077
6212 1 85.515 11.7976 1.43498
6213 1 87.3233 10.8973 2.86077
6214 1 88.2274 12.7018 1.43497
6215 1 89.1316 9.99705 1.43497
6217 1 90.0357 11.8016 2.86077
6219 1 91.844 10.9013 1.43497
6221 1 93.6523 10.001 2.86077
6223 1 92.7482 12.7058 2.86077
6220 1 94.5565 11.8055 1.43497
6225 1 96.3648 10.9053 2.86077
6226 1 97.269 12.7098 1.43497
6227 1 98.1731 10.005 1.43497
6230 1 99.0773 11.8095 2.86077
6229 1 100.886 10.9093 1.43497
6233 1 102.694 10.009 2.86077
6235 1 101.79 12.7138 2.86077
6232 1 103.598 11.8135 1.43497
6238 1 105.406 10.9133 2.86077
6239 1 106.31 12.7178 1.43497
6236 1 107.215 10.013 1.43497
6242 1 108.119 11.8175 2.86077
6240 1 109.927 10.9173 1.43497
6244 1 112.64 11.8216 1.43497
6245 1 111.735 10.017 2.86077
6247 1 110.831 12.7218 2.86077
6250 1 114.448 10.9213 2.86077
6251 1 115.352 12.7257 1.43497
6248 1 116.256 10.0212 1.43497
6252 1 118.97 10.9244 1.43497
6254 1 117.161 11.8252 2.86077
6258 1 121.674 11.8326 1.43497
6259 1 120.781 10.0229 2.86077
6256 1 119.87 12.7312 2.86077
6260 1 125.206 10.0324 1.43497
6262 1 123.475 10.9446 2.86077
6326 1 124.422 12.6985 1.43497
214 1 2.1121 14.5417 2.86077
216 1 3.8436 15.4538 1.43497
217 1 4.72354 13.6276 2.86077
218 1 6.53748 14.5321 1.43497
220 1 9.25499 13.6304 1.43497
221 1 8.34857 15.4336 2.86077
223 1 11.0628 14.5303 2.86077
224 1 12.8709 15.4305 1.43497
225 1 15.5832 14.5261 1.43497
226 1 13.7748 13.6259 2.86077
228 1 18.2957 13.6219 1.43497
229 1 17.3915 15.4264 2.86077
231 1 21.9123 15.4223 1.43497
232 1 20.104 14.5221 2.86077
233 1 22.8164 13.6178 2.86077
234 1 24.6247 14.5181 1.43498
236 1 27.3371 13.6138 1.43498
237 1 26.433 15.4183 2.86077
238 1 29.1454 14.514 2.86078
239 1 30.9537 15.4143 1.43499
240 1 31.8579 13.6097 2.8608
241 1 33.6662 14.51 1.435
242 1 35.4744 15.4102 2.86081
243 1 36.3786 13.6057 1.43501
244 1 38.1869 14.506 2.86082
245 1 39.9951 15.4062 1.435
246 1 40.8993 13.6017 2.8608
247 1 42.7075 14.5019 1.43498
248 1 44.5158 15.4021 2.8607
249 1 45.4199 13.5976 1.43491
250 1 47.2284 14.4976 2.86048
252 1 49.0369 15.3973 1.43463
253 1 49.9414 13.5922 2.85963
254 1 51.75 14.491 1.43413
256 1 53.5573 15.3924 2.8596
257 1 54.462 13.5884 1.4339
259 1 56.2706 14.4898 2.85985
260 1 58.0817 15.3923 1.43475
262 1 58.9741 13.5818 2.85978
6263 1 60.7752 14.4703 1.43462
6264 1 62.5065 15.3823 2.86045
6266 1 63.6577 13.4697 1.43461
6268 1 64.8105 15.3828 2.86061
6270 1 66.5418 14.4705 1.43492
6271 1 69.2359 15.3924 1.43494
6272 1 68.3426 13.5827 2.86068
6274 1 71.047 14.491 2.86073
6275 1 72.8563 13.5903 1.43496
6278 1 73.7613 15.3943 2.86076
6276 1 75.5694 14.4942 1.43497
6280 1 77.3776 13.594 2.86077
6281 1 78.2818 15.3986 1.43498
6284 1 80.0901 14.4983 2.86077
6282 1 81.8984 13.5981 1.43498
6287 1 82.8025 15.4025 2.86077
6285 1 84.6108 14.5023 1.43498
6289 1 86.4191 13.6021 2.86077
6290 1 87.3233 15.4066 1.43497
6293 1 89.1316 14.5063 2.86077
6292 1 90.9399 13.606 1.43497
6294 1 93.6524 14.5103 1.43497
6296 1 91.8441 15.4106 2.86077
6298 1 95.4607 13.61 2.86077
6299 1 96.3648 15.4146 1.43497
6301 1 99.9814 13.614 1.43497
6302 1 98.1731 14.5143 2.86077
6304 1 100.886 15.4186 2.86077
6305 1 102.694 14.5183 1.43497
6308 1 105.406 15.4225 1.43497
6309 1 104.502 13.618 2.86077
6310 1 107.215 14.5223 2.86077
6311 1 109.023 13.622 1.43497
6313 1 109.927 15.4265 2.86077
6315 1 111.735 14.5263 1.43497
6316 1 113.544 13.626 2.86077
6318 1 114.448 15.4306 1.43497
6319 1 116.256 14.5305 2.86077
6320 1 118.064 13.6305 1.43497
6322 1 118.97 15.4337 2.86077
6324 1 120.781 14.5322 1.43497
6325 1 122.595 13.6277 2.86077
6328 1 125.207 14.5417 2.86077
6329 1 123.475 15.4539 1.43497
215 1 0.960002 16.4539 1.43497
264 1 2.11211 19.0509 1.43497
265 1 2.89681 17.2077 2.86077
219 1 5.64438 16.3418 2.86077
266 1 4.72355 18.1369 1.43497
267 1 6.53749 19.0413 2.86077
268 1 7.44828 17.2404 1.43497
269 1 9.255 18.1397 2.86077
222 1 10.1578 16.3344 1.43497
270 1 11.0628 19.0396 1.43497
271 1 11.9664 17.2348 2.86077
227 1 14.6791 16.3307 2.86077
272 1 13.7748 18.1351 1.43497
273 1 15.5832 19.0354 2.86077
274 1 16.4874 17.2309 1.43497
230 1 19.1998 16.3266 1.43497
275 1 18.2957 18.1311 2.86077
276 1 20.104 19.0314 1.43497
277 1 21.0081 17.2268 2.86077
278 1 22.8164 18.1271 1.43497
235 1 23.7205 16.3226 2.86077
279 1 24.6247 19.0273 2.86077
280 1 25.5288 17.2228 1.43498
281 1 28.2413 16.3185 1.43498
282 1 27.3371 18.123 2.86077
283 1 29.1454 19.0233 1.43498
284 1 30.0496 17.2188 2.86078
285 1 31.8579 18.119 1.43499
286 1 32.762 16.3145 2.8608
287 1 34.5703 17.2147 1.435
288 1 33.6662 19.0192 2.86079
289 1 37.2827 16.3105 1.43501
290 1 36.3786 18.115 2.86081
291 1 38.1869 19.0152 1.435
292 1 39.091 17.2107 2.86081
293 1 41.8034 16.3064 2.86079
294 1 40.8993 18.1109 1.435
295 1 43.6117 17.2066 1.43496
296 1 42.7076 19.011 2.86077
297 1 45.4201 18.1066 2.86068
299 1 46.3242 16.3021 1.43487
300 1 47.2285 19.0066 1.43487
301 1 48.1327 17.2019 2.86046
303 1 50.8456 16.2967 2.86001
304 1 49.941 18.1018 1.43472
305 1 51.749 19.0023 2.86045
308 1 52.6535 17.1978 1.43462
309 1 54.4618 18.0988 2.86046
311 1 55.3645 16.2937 1.43472
312 1 56.2708 19.0001 1.4349
313 1 57.171 17.1931 2.86052
315 1 59.8955 16.2965 2.86048
316 1 58.9749 18.0919 1.43491
6330 1 60.7755 18.9798 2.86072
6331 1 61.7222 17.2259 1.43491
6335 1 63.6588 17.9798 2.86071
6334 1 65.5955 17.226 1.43493
6338 1 67.422 16.2968 2.86069
6340 1 66.5423 18.98 2.86074
6337 1 68.343 18.0919 1.43495
6343 1 70.1468 17.1934 2.86074
6344 1 71.0472 19.0002 1.43497
6341 1 71.9535 16.2942 1.43496
6347 1 72.8564 18.0995 2.86077
6346 1 74.665 17.1991 1.43497
6349 1 75.5695 19.0034 2.86078
6351 1 77.3777 18.1032 1.43498
6352 1 76.4734 16.2988 2.86077
6356 1 79.186 17.203 2.86077
6358 1 80.0901 19.0075 1.43498
6353 1 80.9943 16.3028 1.43498
6357 1 81.8984 18.1073 2.86077
6359 1 83.7067 17.207 1.43498
6361 1 84.6109 19.0115 2.86077
6363 1 86.4192 18.1113 1.43497
6365 1 85.515 16.3068 2.86077
6366 1 88.2275 17.2111 2.86077
6367 1 90.0358 16.3108 1.43497
6370 1 89.1316 19.0156 1.43497
6369 1 90.9399 18.1153 2.86077
6372 1 92.7482 17.2151 1.43497
6375 1 93.6524 19.0196 2.86077
6373 1 94.5565 16.3148 2.86077
6377 1 95.4607 18.1193 1.43497
6378 1 97.269 17.2191 2.86077
6379 1 99.0773 16.3188 1.43497
6381 1 99.9814 18.1233 2.86077
6382 1 98.1731 19.0236 1.43497
6384 1 101.79 17.2231 1.43497
6387 1 102.694 19.0276 2.86077
6385 1 103.598 16.3228 2.86077
6389 1 104.502 18.1273 1.43497
6390 1 106.31 17.2271 2.86077
6391 1 107.215 19.0316 1.43497
6392 1 108.119 16.3268 1.43497
6394 1 109.023 18.1313 2.86077
6396 1 110.831 17.2311 1.43497
6398 1 112.64 16.3308 2.86077
6400 1 111.735 19.0355 2.86077
6397 1 113.544 18.1353 1.43497
6402 1 115.352 17.2349 2.86077
6403 1 116.256 19.0397 1.43497
6404 1 117.161 16.3345 1.43497
6407 1 118.064 18.1398 2.86077
6406 1 119.87 17.2404 1.43497
6409 1 122.595 18.1369 1.43497
6410 1 121.674 16.3419 2.86077
6412 1 120.781 19.0414 2.86077
6414 1 124.422 17.2078 2.86077
6415 1 125.207 19.051 1.43497
318 1 2.89682 21.717 1.43497
319 1 0.960011 20.9632 2.86077
320 1 5.64439 20.8511 1.43497
321 1 3.84361 19.9631 2.86077
323 1 8.34858 19.9429 1.43497
324 1 7.4483 21.7496 2.86077
326 1 10.1578 20.8437 2.86077
327 1 11.9664 21.7441 1.43497
328 1 12.8709 19.9397 2.86077
329 1 14.6791 20.8399 1.43497
331 1 16.4874 21.7402 2.86077
332 1 17.3915 19.9356 1.43497
334 1 19.1998 20.8359 2.86077
335 1 21.0081 21.7361 1.43497
336 1 21.9123 19.9316 2.86077
338 1 23.7206 20.8318 1.43497
339 1 25.5289 21.7321 2.86077
340 1 26.433 19.9276 1.43497
341 1 28.2413 20.8278 2.86077
343 1 30.0496 21.728 1.43498
344 1 30.9537 19.9235 2.86078
346 1 32.762 20.8238 1.43499
347 1 34.5703 21.724 2.86079
348 1 35.4745 19.9195 1.435
349 1 37.2828 20.8197 2.8608
350 1 39.091 21.7199 1.435
352 1 39.9952 19.9154 2.8608
353 1 41.8035 20.8156 1.43499
355 1 43.6118 21.7157 2.86077
356 1 44.5159 19.9112 1.43495
358 1 46.3243 20.8112 2.8607
359 1 48.1326 21.7114 1.43491
361 1 49.0368 19.9067 2.86056
362 1 50.845 20.8072 1.43487
364 1 53.5568 19.903 1.43486
365 1 52.6532 21.7077 2.86069
367 1 58.0818 19.9016 2.86072
368 1 55.3645 20.8031 2.8607
369 1 57.1711 21.7026 1.43498
372 1 59.8957 20.8062 1.43498
6416 1 62.5069 19.8922 1.435
6417 1 61.7223 21.7354 2.86082
6483 1 63.659 22.4894 1.43501
6419 1 64.811 19.8923 1.43496
6421 1 65.5956 21.7355 2.86079
6423 1 67.4223 20.8062 1.43498
6424 1 69.2361 19.9017 2.86076
6426 1 70.147 21.7027 1.43498
6427 1 71.9536 20.8034 2.86078
6428 1 73.7614 19.9035 1.43498
6430 1 74.665 21.7083 2.86078
6432 1 76.4735 20.808 1.43498
6433 1 78.2818 19.9078 2.86078
6435 1 79.186 21.7123 1.43498
6436 1 80.9943 20.812 2.86077
6437 1 82.8026 19.9118 1.43498
6439 1 83.7067 21.7163 2.86077
6441 1 85.515 20.8161 1.43497
6442 1 88.2275 21.7203 1.43497
6443 1 87.3233 19.9158 2.86077
6445 1 90.0358 20.8201 2.86077
6446 1 91.8441 19.9198 1.43497
6449 1 92.7482 21.7243 2.86077
6447 1 94.5565 20.8241 1.43497
6451 1 96.3648 19.9238 2.86077
6452 1 97.269 21.7283 1.43497
6455 1 99.0773 20.8281 2.86077
6453 1 100.886 19.9278 1.43497
6458 1 101.79 21.7323 2.86077
6456 1 103.598 20.8321 1.43497
6460 1 106.31 21.7363 1.43497
6461 1 105.406 19.9318 2.86077
6464 1 108.119 20.8361 2.86077
6463 1 109.927 19.9358 1.43497
6465 1 112.64 20.8401 1.43497
6467 1 110.831 21.7403 2.86077
6469 1 115.352 21.7442 1.43497
6470 1 114.448 19.9399 2.86077
6472 1 118.97 19.9429 1.43497
6474 1 117.161 20.8438 2.86077
6475 1 119.87 21.7497 2.86077
6476 1 121.674 20.8511 1.43497
6478 1 124.422 21.717 1.43497
6479 1 123.475 19.9632 2.86077
373 1 0.960019 25.4724 1.43497
374 1 2.11212 23.5602 2.86077
322 1 4.72357 22.6461 2.86077
375 1 3.84362 24.4724 1.43497
376 1 5.64441 25.3603 2.86077
377 1 6.5375 23.5506 1.43497
325 1 9.25502 22.649 1.43497
378 1 8.3486 24.4521 2.86077
379 1 10.1578 25.3529 1.43497
380 1 11.0628 23.5489 2.86077
381 1 12.8709 24.449 1.43497
330 1 13.7749 22.6444 2.86077
382 1 15.5832 23.5447 1.43497
383 1 14.6791 25.3492 2.86077
333 1 18.2957 22.6404 1.43497
384 1 17.3915 24.4449 2.86077
385 1 19.1998 25.3452 1.43497
337 1 22.8164 22.6364 2.86077
386 1 21.9123 24.4409 1.43497
387 1 20.104 23.5406 2.86077
388 1 24.6247 23.5366 1.43497
389 1 23.7206 25.3411 2.86077
342 1 27.3372 22.6323 1.43497
390 1 28.2413 25.3371 1.43498
391 1 26.433 24.4368 2.86077
392 1 29.1455 23.5326 2.86077
345 1 31.8579 22.6283 2.86078
393 1 30.9538 24.4328 1.43498
394 1 32.7621 25.333 2.86078
395 1 33.6662 23.5285 1.43499
396 1 35.4745 24.4287 2.86079
351 1 36.3786 22.6242 1.43499
397 1 37.2828 25.3289 1.43499
398 1 38.1869 23.5244 2.8608
354 1 40.8994 22.6201 2.8608
399 1 39.9952 24.4246 1.435
400 1 41.8035 25.3248 2.8608
357 1 45.4201 22.6159 1.43496
401 1 42.7077 23.5203 1.43499
402 1 44.516 24.4204 2.86078
403 1 46.3242 25.3206 1.43499
404 1 47.2284 23.516 2.86074
406 1 49.9407 22.6117 2.8607
407 1 49.0366 24.4164 1.43497
408 1 50.8449 25.3168 2.86079
409 1 51.7488 23.5122 1.43496
412 1 54.4617 22.6084 1.43497
413 1 53.5568 24.4124 2.86079
415 1 55.3645 25.3125 1.43501
416 1 56.2708 23.5093 2.8608
417 1 58.0818 24.411 1.43502
419 1 58.9749 22.6012 2.86081
420 1 59.8956 25.3156 2.86084
6480 1 60.7756 23.4893 1.43502
6481 1 62.5069 24.4016 2.86085
6485 1 64.811 24.4016 2.86079
6487 1 66.5424 23.4894 1.43499
6491 1 67.4223 25.3156 2.8608
6488 1 69.2362 24.4111 1.43499
6489 1 68.3431 22.6013 2.86079
6493 1 71.0472 23.5095 2.86079
6494 1 71.9537 25.3127 1.43499
6495 1 72.8564 22.6087 1.43498
6498 1 73.7614 24.4128 2.86078
6497 1 75.5695 23.5127 1.43498
6501 1 77.3777 22.6125 2.86078
6503 1 76.4734 25.3173 2.86078
6500 1 78.2818 24.417 1.43498
6506 1 80.0901 23.5168 2.86077
6504 1 81.8984 22.6165 1.43498
6507 1 80.9943 25.3213 1.43498
6510 1 82.8026 24.4211 2.86077
6509 1 84.6109 23.5208 1.43497
6513 1 86.4192 22.6206 2.86077
6515 1 85.515 25.3253 2.86077
6512 1 87.3233 24.4251 1.43497
6518 1 89.1316 23.5248 2.86077
6519 1 90.0357 25.3293 1.43497
6516 1 90.9399 22.6246 1.43497
6521 1 93.6524 23.5288 1.43497
6522 1 91.8441 24.4291 2.86077
6524 1 94.5565 25.3333 2.86077
6526 1 96.3648 24.4331 1.43497
6527 1 95.4607 22.6286 2.86077
6528 1 99.9814 22.6326 1.43497
6531 1 98.1731 23.5328 2.86077
6533 1 99.0773 25.3373 1.43497
6532 1 100.886 24.4371 2.86077
6534 1 102.694 23.5368 1.43497
6536 1 103.598 25.3413 2.86077
6539 1 105.406 24.4411 1.43497
6540 1 104.502 22.6366 2.86077
6541 1 107.215 23.5408 2.86077
6542 1 109.023 22.6406 1.43497
6545 1 108.119 25.3453 1.43497
6544 1 109.927 24.4451 2.86077
6547 1 111.735 23.5448 1.43497
6550 1 112.64 25.3493 2.86077
6548 1 113.544 22.6445 2.86077
6552 1 114.448 24.4491 1.43497
6553 1 116.256 23.549 2.86077
6554 1 118.064 22.6491 1.43497
6556 1 118.97 24.4522 2.86077
6557 1 117.161 25.353 1.43497
6559 1 120.781 23.5507 1.43497
6560 1 122.595 22.6462 2.86077
6562 1 121.674 25.3604 2.86077
6564 1 123.475 24.4724 1.43497
6565 1 125.207 23.5602 2.86077
423 1 2.89683 26.2263 2.86077
424 1 2.11213 28.0694 1.43497
425 1 4.72358 27.1554 1.43497
426 1 3.84363 28.9816 2.86077
427 1 6.53752 28.0599 2.86077
428 1 7.44832 26.2589 1.43497
429 1 8.34861 28.9614 1.43497
430 1 9.25504 27.1582 2.86077
431 1 11.0628 28.0581 1.43497
432 1 11.9665 26.2534 2.86077
433 1 12.8709 28.9583 2.86077
434 1 13.7749 27.1537 1.43497
435 1 15.5832 28.0539 2.86077
436 1 16.4874 26.2494 1.43497
437 1 17.3916 28.9542 1.43497
438 1 18.2957 27.1497 2.86077
439 1 20.104 28.0499 1.43497
440 1 21.0082 26.2454 2.86077
441 1 21.9123 28.9502 2.86077
442 1 22.8165 27.1456 1.43497
443 1 24.6248 28.0459 2.86077
444 1 25.5289 26.2414 1.43497
445 1 26.4331 28.9461 1.43497
446 1 27.3372 27.1416 2.86077
447 1 29.1455 28.0418 1.43498
448 1 30.0496 26.2373 2.86077
449 1 30.9538 28.9421 2.86078
450 1 31.8579 27.1375 1.43498
451 1 34.5704 26.2332 1.43499
452 1 33.6662 28.0378 2.86078
453 1 35.4746 28.938 1.43499
454 1 36.3787 27.1335 2.86079
455 1 38.187 28.0337 1.435
456 1 39.0911 26.2291 2.8608
457 1 40.8994 27.1293 1.435
458 1 39.9953 28.9339 2.86081
459 1 43.6118 26.225 1.435
460 1 42.7077 28.0295 2.86081
461 1 45.4201 27.1252 2.86081
463 1 44.516 28.9298 1.43501
464 1 48.1325 26.2209 2.8608
465 1 47.2283 28.0255 1.43501
467 1 49.9406 27.1213 1.43501
468 1 51.7488 28.0216 2.86083
470 1 49.0366 28.9258 2.86083
472 1 52.6532 26.2173 1.43501
473 1 54.4617 27.1178 2.86084
475 1 53.5568 28.9219 1.43503
476 1 57.1711 26.212 2.86084
477 1 56.2708 28.0188 1.43503
479 1 58.0818 28.9204 2.86085
481 1 58.9749 27.1107 1.43503
6566 1 60.7755 27.9988 2.86085
6567 1 61.7223 26.2448 1.43503
6570 1 63.659 26.9988 2.86083
6631 1 62.5069 28.9111 1.43503
6568 1 65.5957 26.2448 1.435
6573 1 66.5424 27.9988 2.8608
6634 1 64.811 28.911 1.43499
6572 1 68.3432 27.1107 1.435
6575 1 71.0473 28.0189 1.43499
6576 1 70.147 26.2121 2.86079
6640 1 69.2362 28.9205 2.86079
6580 1 72.8564 27.118 2.86079
6646 1 73.7614 28.9221 1.43499
6577 1 74.665 26.2176 1.43498
6581 1 75.5695 28.022 2.86078
6582 1 77.3777 27.1218 1.43498
6585 1 80.0901 28.0261 1.43498
6586 1 79.186 26.2215 2.86078
6652 1 78.2818 28.9263 2.86078
6587 1 81.8984 27.1258 2.86077
6588 1 83.7067 26.2256 1.43498
6659 1 82.8025 28.9303 1.43498
6590 1 84.6108 28.0301 2.86077
6592 1 86.4191 27.1298 1.43497
6593 1 88.2274 26.2296 2.86077
6595 1 89.1316 28.0341 1.43497
6665 1 87.3233 28.9343 2.86077
6596 1 90.9399 27.1338 2.86077
6597 1 92.7482 26.2336 1.43497
6599 1 93.6523 28.0381 2.86077
6671 1 91.844 28.9383 1.43497
6601 1 95.4606 27.1378 1.43497
6677 1 96.3648 28.9423 2.86077
6602 1 97.269 26.2376 2.86077
6604 1 98.1731 28.0421 1.43497
6605 1 99.9814 27.1418 2.86077
6606 1 101.79 26.2416 1.43497
6608 1 102.694 28.0461 2.86077
6680 1 100.886 28.9463 1.43497
6610 1 104.502 27.1458 1.43497
6612 1 106.31 26.2456 2.86077
6690 1 105.406 28.9503 2.86077
6611 1 107.215 28.0501 1.43497
6614 1 109.023 27.1498 2.86077
6615 1 110.831 26.2496 1.43497
6618 1 111.735 28.0541 2.86077
6692 1 109.927 28.9543 1.43497
6616 1 113.544 27.1538 1.43497
6621 1 115.352 26.2535 2.86077
6703 1 114.448 28.9584 2.86077
6620 1 116.256 28.0582 1.43497
6624 1 118.064 27.1583 2.86077
6704 1 118.97 28.9614 1.43497
6622 1 119.87 26.259 1.43497
6625 1 122.595 27.1555 1.43497
6627 1 120.781 28.0599 2.86077
6629 1 125.207 28.0695 1.43497
6630 1 124.422 26.2263 2.86077
6715 1 123.475 28.9817 2.86077
482 1 2.89683 30.7355 1.43497
483 1 0.960022 29.9817 2.86077
485 1 5.64442 29.8696 1.43497
486 1 4.72358 31.6647 2.86077
487 1 9.25505 31.6675 1.43497
488 1 7.44833 30.7681 2.86077
489 1 10.1578 29.8622 2.86077
490 1 11.9665 30.7626 1.43497
491 1 14.6792 29.8585 1.43497
492 1 13.7749 31.6629 2.86077
493 1 16.4874 30.7587 2.86077
494 1 18.2958 31.6589 1.43497
495 1 19.1999 29.8544 2.86077
496 1 21.0082 30.7547 1.43497
497 1 22.8165 31.6549 2.86077
498 1 23.7206 29.8504 1.43497
499 1 25.529 30.7506 2.86077
500 1 27.3373 31.6509 1.43498
501 1 28.2414 29.8464 2.86077
502 1 30.0497 30.7466 1.43498
503 1 31.858 31.6468 2.86078
504 1 32.7621 29.8423 1.43498
505 1 34.5704 30.7425 2.86079
506 1 36.3787 31.6427 1.43499
507 1 37.2829 29.8382 2.8608
508 1 39.0911 30.7384 1.435
509 1 40.8994 31.6386 2.86082
510 1 41.8036 29.8341 1.43501
511 1 43.6118 30.7343 2.86082
512 1 45.4201 31.6346 1.43502
513 1 46.3242 29.83 2.86083
514 1 48.1324 30.7304 1.43503
516 1 49.9406 31.6307 2.86085
517 1 50.8448 29.8262 1.43503
519 1 52.6532 30.7267 2.86085
520 1 54.4617 31.6272 1.43503
522 1 55.3644 29.8219 2.86085
523 1 57.171 30.7214 1.43503
525 1 59.8956 29.825 1.43503
526 1 58.9748 31.6201 2.86083
6632 1 61.7222 30.7543 2.86083
6636 1 63.6589 31.5082 1.435
6637 1 65.5956 30.7542 2.86079
6639 1 67.4223 29.825 1.43499
6642 1 68.3431 31.6201 2.86079
6644 1 70.147 30.7215 1.43499
6645 1 71.9537 29.8221 2.86079
6649 1 72.8564 31.6274 1.43499
6648 1 74.665 30.7269 2.86079
6651 1 76.4734 29.8266 1.43498
6654 1 77.3777 31.6311 2.86078
6656 1 79.1859 30.7308 1.43498
6657 1 80.9942 29.8306 2.86077
6658 1 81.8984 31.6351 1.43498
6661 1 83.7067 30.7348 2.86077
6663 1 85.515 29.8346 1.43498
6667 1 86.4191 31.6391 2.86077
6664 1 88.2274 30.7388 1.43497
6669 1 90.0357 29.8386 2.86077
6670 1 90.9399 31.6431 1.43497
6674 1 92.7482 30.7428 2.86077
6673 1 94.5565 29.8426 1.43497
6679 1 95.4606 31.6471 2.86077
6676 1 97.2689 30.7468 1.43497
6682 1 99.0772 29.8466 2.86077
6683 1 99.9814 31.6511 1.43497
6686 1 101.79 30.7508 2.86077
6685 1 103.598 29.8506 1.43497
6688 1 106.31 30.7548 1.43497
6691 1 104.502 31.6551 2.86077
6694 1 108.119 29.8546 2.86077
6695 1 109.023 31.6591 1.43497
6697 1 112.639 29.8586 1.43497
6698 1 110.831 30.7588 2.86077
6700 1 113.544 31.663 2.86077