ITEM: TIMESTEP
5215
ITEM: NUMBER OF ATOMS
72240
ITEM: BOX BOUNDS pp pp pp
-4.4270561548838094e-01 1.2237908261548840e+02
-2.2590655530450261e-02 8.6244629655530474e+01
2.5216749899255715e-02 7.4645259250100736e+01
ITEM: ATOMS id type x y z
1 1 0.969122 1.98852 0.602768
2 1 2.98486 0.590261 0.590579
3 1 5.02217 1.32946 1.83979
4 1 2.99702 2.76223 1.83737
5 1 7.05622 2.05795 0.601483
6 1 9.08823 0.628373 0.603964
7 1 11.1209 1.35586 1.85047
8 1 9.08858 2.78513 1.84782
9 1 13.1534 2.08331 0.60968
10 1 15.1857 0.654044 0.61246
11 1 17.2181 1.38147 1.85893
12 1 15.1857 2.81073 1.85614
13 1 19.2505 2.10889 0.618055
14 1 21.2829 0.679625 0.620847
15 1 23.3153 1.40704 1.86731
16 1 21.2829 2.83631 1.86452
17 1 25.3477 2.13446 0.626434
1369 1 25.3477 -0.0222181 1.8701
18 1 27.38 0.705201 0.629226
19 1 29.4124 1.43262 1.87569
20 1 27.38 2.86188 1.87289
21 1 31.4448 2.16004 0.634812
1374 1 31.4448 0.00335755 1.87848
22 1 33.4772 0.730777 0.637605
23 1 33.4772 2.88746 1.88127
24 1 35.5096 1.4582 1.88407
25 1 37.542 2.18561 0.643191
26 1 37.542 0.028934 1.88686
27 1 39.5744 0.756353 0.645985
28 1 39.5744 2.91303 1.88965
29 1 41.6067 1.48377 1.89245
30 1 43.6391 2.21119 0.651571
31 1 43.6391 0.0545104 1.89524
32 1 45.6715 0.781929 0.654364
33 1 45.6715 2.93861 1.89803
34 1 47.7039 1.50935 1.90082
35 1 49.7363 2.23677 0.65995
36 1 49.7363 0.0800862 1.90362
37 1 51.7687 0.807505 0.662743
39 1 53.8011 1.53492 1.9092
40 1 55.8334 2.26234 0.668329
41 1 55.8334 0.105661 1.912
42 1 57.8658 0.833081 0.671121
43 1 59.8982 1.5605 1.91758
44 1 61.9306 2.28792 0.676716
45 1 61.9306 0.131231 1.92037
46 1 63.963 0.858659 0.679496
47 1 65.9953 1.58612 1.92593
48 1 68.0281 2.31359 0.685212
49 1 68.0274 0.156781 1.92859
50 1 70.0601 0.884014 0.687693
42001 1 72.0918 1.61262 1.93286
42002 1 74.1185 0.182829 1.92966
42003 1 74.1315 2.35171 0.698597
42004 1 76.1472 0.953448 0.686408
42005 1 80.3607 2.72792 1.13237
42006 1 78.231 1.62303 1.87786
42007 1 82.8772 2.30186 1.37712
42008 1 81.2867 0.472632 1.60107
42009 1 85.329 1.86994 1.62829
42010 1 83.7197 0.00263423 1.87822
42011 1 87.7731 1.44331 1.87948
42012 1 88.9921 0.151939 0.139189
42013 1 90.2137 1.01725 2.13015
42014 1 91.8412 2.88962 1.88254
42015 1 93.0599 1.59855 0.142275
42016 1 94.2793 2.46412 2.13303
42017 1 92.653 0.591423 2.38065
42018 1 95.0918 0.165687 2.63109
42019 1 97.9369 0.747349 0.643175
42020 1 95.4984 1.17299 0.392744
42021 1 96.7177 2.03851 2.38347
42022 1 99.5626 2.62028 0.395587
42023 1 100.375 0.321686 0.893589
42024 1 99.1562 1.61286 2.63389
42025 1 102.001 2.19462 0.646001
42026 1 101.595 1.18719 2.88429
42027 1 104.44 1.76898 0.896432
42028 1 106.878 1.34342 1.1469
42029 1 105.659 2.63452 2.88715
42030 1 109.317 0.918038 1.39746
42031 1 110.946 2.79003 1.14999
42032 1 111.755 0.493139 1.64821
42033 1 113.391 2.36348 1.40133
42034 1 115.848 1.93694 1.65353
42035 1 114.193 0.0698229 1.89895
42036 1 118.333 1.49816 1.91915
42037 1 121.078 1.25519 1.93746
42038 1 119.577 0.214046 0.156805
51 1 0.971225 4.2038 1.85097
52 1 5.02534 3.48992 0.599324
53 1 2.98527 4.92402 0.598775
54 1 5.02359 5.64373 1.84246
55 1 7.05668 4.21467 1.84551
56 1 11.121 3.51262 0.606953
57 1 9.08863 4.94193 0.60416
58 1 11.121 5.66928 1.85057
59 1 13.1534 4.24 1.85337
60 1 15.1857 4.96742 0.612472
61 1 17.2181 3.53815 0.615265
62 1 17.2181 5.69483 1.85893
63 1 19.2505 4.26557 1.86172
64 1 21.2829 4.99299 0.620848
65 1 23.3153 3.56372 0.623641
66 1 23.3153 5.7204 1.86731
67 1 25.3477 4.29114 1.8701
68 1 27.38 5.01856 0.629226
69 1 29.4124 3.5893 0.632019
70 1 29.4124 5.74598 1.87569
71 1 31.4448 4.31672 1.87848
72 1 33.4772 5.04414 0.637605
73 1 35.5096 3.61488 0.640398
74 1 37.542 4.34229 1.88686
75 1 35.5096 5.77156 1.88407
76 1 39.5744 5.06971 0.645985
77 1 41.6067 3.64045 0.648778
78 1 43.6391 4.36787 1.89524
79 1 41.6067 5.79713 1.89245
80 1 45.6715 5.09529 0.654364
81 1 47.7039 3.66603 0.657157
82 1 47.7039 5.82271 1.90082
83 1 49.7363 4.39345 1.90362
38 1 51.7687 2.96419 1.90641
84 1 51.7687 5.12087 0.662743
85 1 53.8011 3.6916 0.665536
86 1 55.8334 4.41902 1.912
87 1 53.8011 5.84828 1.9092
88 1 57.8658 2.98976 1.91479
89 1 57.8658 5.14644 0.671121
90 1 59.8982 3.71718 0.673917
91 1 59.8982 5.87386 1.91758
92 1 61.9306 4.4446 1.92038
93 1 63.963 3.01536 1.92319
94 1 63.963 5.172 0.67949
95 1 65.9954 3.74275 0.682331
96 1 65.9953 5.89941 1.92594
97 1 68.0278 4.47018 1.92892
98 1 70.0608 3.04135 1.93194
99 1 70.0595 5.19754 0.687992
42039 1 72.0928 3.7695 0.690881
42040 1 74.1236 4.49293 1.94062
42078 1 72.0927 5.92496 1.93406
42041 1 76.1871 3.06107 1.98879
42042 1 76.1387 5.22291 0.699008
42043 1 78.075 3.71981 0.702522
42044 1 79.8872 5.07994 0.608981
42045 1 82.1564 4.57979 0.885392
42046 1 80.8191 5.83538 2.63883
42047 1 83.306 5.45049 2.86994
42048 1 84.5466 4.16308 1.13108
42049 1 86.9702 3.73931 1.3813
42050 1 89.4041 3.31482 1.63197
42051 1 88.5909 5.61485 1.13501
42052 1 91.0283 5.18869 1.38495
42053 1 93.4665 4.76287 1.63516
42054 1 97.1241 3.04596 0.145188
42055 1 98.3434 3.91146 2.13589
42056 1 95.9049 4.33715 1.8855
42057 1 101.188 4.49316 0.147962
42058 1 100.782 3.48579 2.38629
42059 1 99.9691 5.78434 1.88826
42060 1 103.22 3.06014 2.63671
42061 1 103.627 4.06747 0.398381
42062 1 102.408 5.35866 2.13867
42063 1 106.066 3.64176 0.648817
42064 1 104.846 4.93296 2.38909
42065 1 107.285 4.50723 2.63953
42066 1 108.505 3.21598 0.89931
42067 1 110.129 5.08879 0.651084
42068 1 107.691 5.51462 0.400989
42069 1 109.724 4.08139 2.89003
42070 1 112.567 4.66291 0.900638
42071 1 115.003 4.23725 1.14956
42072 1 113.783 5.52653 2.891
42073 1 117.433 3.82662 1.39368
42074 1 119.119 5.73331 1.13768
42075 1 121.882 3.37887 0.609704
42076 1 119.801 3.42932 1.68211
42077 1 121.678 5.53782 1.76942
100 1 0.924652 6.36962 0.618746
101 1 0.929228 8.50762 1.78772
102 1 2.99271 7.07576 1.83589
103 1 5.02217 7.7995 0.596123
104 1 7.05567 6.37101 0.601074
105 1 7.05557 8.52734 1.84457
106 1 9.08852 7.09851 1.84759
107 1 11.1209 7.8259 0.606805
108 1 13.1533 6.39667 0.609653
109 1 13.1533 8.55333 1.85332
110 1 15.1857 7.12409 1.85613
111 1 17.2181 7.85151 0.615259
112 1 19.2505 6.42225 0.618054
113 1 19.2505 8.57893 1.86172
114 1 21.2829 7.14967 1.86451
115 1 23.3153 7.87709 0.623641
116 1 25.3477 6.44782 0.626434
117 1 25.3477 8.6045 1.8701
118 1 27.38 7.17524 1.87289
119 1 29.4124 7.90266 0.632019
120 1 31.4448 6.4734 0.634812
121 1 31.4448 8.63008 1.87848
122 1 33.4772 7.20082 1.88127
123 1 35.5096 7.92824 0.640398
124 1 37.542 6.49898 0.643191
125 1 37.542 8.65566 1.88686
126 1 39.5744 7.22639 1.88965
127 1 41.6067 7.95381 0.648778
128 1 43.6391 6.52455 0.651571
129 1 43.6391 8.68123 1.89524
130 1 45.6715 7.25197 1.89803
131 1 47.7039 7.97939 0.657157
132 1 49.7363 6.55013 0.65995
133 1 49.7363 8.70681 1.90362
134 1 51.7687 7.27755 1.90641
135 1 53.8011 8.00497 0.665535
136 1 55.8334 6.5757 0.668328
137 1 55.8334 8.73238 1.912
138 1 57.8658 7.30312 1.91479
139 1 61.9306 6.60127 0.676698
140 1 59.8982 8.03054 0.673913
141 1 61.9306 8.75796 1.92037
142 1 63.9629 7.32869 1.92314
143 1 65.9953 8.05616 0.682263
144 1 68.0274 6.62682 0.684924
145 1 68.0277 8.78356 1.92869
146 1 70.0596 7.35402 1.931
42079 1 72.0918 8.08266 0.689195
42080 1 74.1185 6.65287 0.685996
42081 1 74.1193 8.80646 1.93914
42082 1 76.1451 7.36489 1.92554
42083 1 78.2601 6.03087 2.00709
42084 1 80.137 8.13937 2.0944
42085 1 78.231 8.09307 0.634195
42086 1 81.2867 6.94267 0.357407
42087 1 82.8772 8.7719 0.133448
42088 1 82.5055 7.74207 2.38283
42089 1 86.1548 6.04216 0.885506
42090 1 83.7197 6.47268 0.63455
42091 1 85.329 8.33999 0.384623
42092 1 84.9349 7.33144 2.62695
42093 1 87.7731 7.91336 0.635809
42094 1 88.9921 8.77866 2.62652
42095 1 87.3707 6.90578 2.87587
42096 1 90.2137 7.4873 0.88648
42097 1 91.4329 8.35271 2.8772
42098 1 92.653 7.06146 1.13698
42099 1 95.0918 6.63573 1.38742
42100 1 97.5304 6.21003 1.63784
42101 1 96.7177 8.50855 1.1398
42102 1 99.1562 8.0829 1.39022
42103 1 101.595 7.65723 1.64062
42104 1 104.033 7.23154 1.89101
42105 1 105.253 5.94036 0.150692
42106 1 106.472 6.80582 2.14135
42107 1 109.317 7.38808 0.153794
42108 1 108.91 6.38 2.39156
42109 1 108.097 8.67907 1.89397
42110 1 111.347 5.95384 2.6415
42111 1 111.755 6.96318 0.404543
42112 1 112.968 7.82938 2.39521
42113 1 110.534 8.25387 2.14454
42114 1 113.391 8.83352 0.157663
42115 1 114.193 6.53986 0.655282
42116 1 115.848 8.40698 0.409866
42117 1 115.392 7.40561 2.64543
42118 1 116.632 6.1182 0.906566
42119 1 118.333 7.96821 0.675482
42120 1 117.782 6.9889 2.89112
42121 1 121.078 7.72523 0.693793
42122 1 119.577 8.84077 2.64414
147 1 0.971225 10.6738 0.607302
148 1 2.99702 9.23227 0.593704
149 1 5.02448 9.95607 1.84365
150 1 2.99779 11.3859 1.84685
151 1 7.05668 10.6847 0.60184
152 1 9.08858 9.25517 0.604152
153 1 11.121 9.98257 1.85058
154 1 9.08891 11.4119 1.84792
155 1 13.1534 10.71 0.609704
156 1 15.1857 9.28077 0.612472
157 1 15.1857 11.4375 1.85615
158 1 17.2181 10.0082 1.85893
159 1 19.2505 10.7356 0.618056
160 1 21.2829 9.30635 0.620848
161 1 21.2829 11.463 1.86452
162 1 23.3153 10.0338 1.86731
163 1 25.3477 10.7612 0.626434
164 1 27.38 9.33192 0.629226
165 1 27.38 11.4886 1.87289
166 1 29.4124 10.0593 1.87569
167 1 31.4448 10.7868 0.634812
168 1 33.4772 9.3575 0.637605
169 1 33.4772 11.5142 1.88127
170 1 35.5096 10.0849 1.88407
171 1 37.542 10.8123 0.643191
172 1 39.5744 9.38307 0.645985
173 1 39.5744 11.5398 1.88965
174 1 41.6067 10.1105 1.89245
175 1 43.6391 10.8379 0.651571
176 1 45.6715 9.40865 0.654364
177 1 45.6715 11.5653 1.89803
178 1 47.7039 10.1361 1.90082
179 1 49.7363 10.8635 0.65995
180 1 51.7687 9.43423 0.662743
181 1 51.7687 11.5909 1.90641
182 1 53.8011 10.1616 1.9092
183 1 55.8334 10.8891 0.668329
184 1 57.8658 9.4598 0.671123
185 1 57.8658 11.6165 1.91479
186 1 59.8982 10.1872 1.91758
187 1 61.9306 10.9146 0.676714
188 1 63.963 9.4854 0.679519
189 1 63.963 11.6421 1.92319
190 1 65.9954 10.2128 1.92604
191 1 68.0278 10.9402 0.685254
192 1 70.0608 9.51139 0.68827
193 1 70.0607 11.6677 1.93177
42123 1 72.0942 10.2392 1.93672
42124 1 74.1236 10.963 0.696951
42125 1 76.1871 9.53111 0.745119
42126 1 76.1917 11.6691 1.9141
42127 1 78.8598 10.3135 1.83905
42128 1 81.6053 10.0705 1.85736
42129 1 84.0901 9.63175 2.12298
42130 1 85.7453 11.4989 1.87756
42131 1 86.9702 10.2093 0.137631
42132 1 89.4041 9.78486 0.388305
42133 1 86.5474 9.20521 2.37518
42134 1 88.1835 11.0756 2.1283
42135 1 91.8412 9.35966 0.638876
42136 1 91.0283 11.6587 0.141281
42137 1 90.6216 10.6507 2.37905
42138 1 94.2793 8.93417 0.88936
42139 1 93.4665 11.2329 0.391496
42140 1 93.0599 10.2253 2.62961
42141 1 95.9049 10.8072 0.641834
42142 1 98.3434 10.3815 0.89222
42143 1 97.1241 11.6727 2.63252
42144 1 95.4984 9.79971 2.88008
42145 1 100.782 9.95583 1.14263
42146 1 99.5626 11.247 2.88292
42147 1 103.22 9.53018 1.39304
42183 1 102.408 11.8287 0.895002
42148 1 105.659 9.10457 1.64348
42149 1 107.285 10.9773 1.39586
42150 1 104.846 11.403 1.14542
42151 1 109.724 10.5514 1.64636
42152 1 112.165 10.1254 1.89703
42153 1 114.609 9.69875 2.14822
42154 1 116.218 11.5661 1.89829
42155 1 117.433 10.2967 0.15001
42156 1 117.061 9.26683 2.3994
42157 1 118.651 11.0961 2.17544
42158 1 119.801 9.89936 0.438439
42159 1 121.707 9.94566 1.89865
194 1 0.977611 12.8158 1.83384
195 1 5.02359 12.1138 0.598788
196 1 2.99271 13.5458 0.592226
197 1 5.02354 14.2692 1.84196
198 1 7.05681 12.8412 1.84485
199 1 11.121 12.1393 0.606899
200 1 9.08852 13.5686 0.603923
201 1 11.1209 14.296 1.85051
202 1 13.1534 12.8667 1.85335
203 1 17.2181 12.1649 0.615263
204 1 15.1857 13.5941 0.612462
205 1 17.2181 14.3216 1.85893
206 1 19.2505 12.8923 1.86172
207 1 23.3153 12.1904 0.623641
208 1 21.2829 13.6197 0.620847
209 1 23.3153 14.3471 1.86731
210 1 25.3477 12.9179 1.8701
211 1 29.4124 12.216 0.632019
212 1 27.38 13.6453 0.629226
213 1 29.4124 14.3727 1.87569
214 1 31.4448 12.9434 1.87848
215 1 33.4772 13.6709 0.637605
216 1 35.5096 12.2416 0.640398
217 1 35.5096 14.3983 1.88407
218 1 37.542 12.969 1.88686
219 1 39.5744 13.6964 0.645985
220 1 41.6067 12.2672 0.648778
221 1 41.6067 14.4239 1.89245
222 1 43.6391 12.9946 1.89524
223 1 45.6715 13.722 0.654364
224 1 47.7039 12.2928 0.657157
225 1 47.7039 14.4494 1.90082
226 1 49.7363 13.0202 1.90362
227 1 51.7687 13.7476 0.662742
228 1 53.8011 12.3183 0.665535
229 1 53.8011 14.475 1.9092
230 1 55.8334 13.0457 1.912
231 1 57.8658 13.7732 0.67112
232 1 59.8982 12.3439 0.673913
233 1 59.8982 14.5006 1.91758
234 1 61.9306 13.0713 1.92037
235 1 63.9629 13.7987 0.679473
236 1 65.9953 12.3694 0.682277
237 1 65.9953 14.5261 1.92589
238 1 68.0277 13.0968 1.92868
239 1 70.0596 13.8241 0.687336
42160 1 72.0927 12.395 0.690388
42161 1 72.091 14.5488 1.93352
42162 1 74.131 13.1147 1.93407
42163 1 76.1451 13.8349 0.681874
42164 1 78.2601 12.5009 0.76342
42165 1 80.137 14.6094 0.850737
42166 1 78.0565 14.6599 1.92314
42167 1 83.306 11.9205 1.62628
42168 1 80.8191 12.3054 1.39516
42169 1 82.5055 14.2121 1.13917
42170 1 84.9349 13.8015 1.38328
42171 1 87.3707 13.3758 1.63221
42172 1 92.247 12.5241 2.13185
42173 1 89.8086 12.9499 1.88176
42213 1 91.4329 14.8228 1.63353
42174 1 94.6855 12.0984 2.38215
42175 1 95.0918 13.1058 0.143754
42176 1 93.8722 14.397 1.88403
42177 1 97.5304 12.6801 0.394174
42178 1 96.3111 13.9713 2.13446
42179 1 99.9691 12.2544 0.644588
42180 1 99.1562 14.5529 0.146551
42181 1 98.7497 13.5456 2.38488
42182 1 101.188 13.1199 2.6353
42184 1 104.033 13.7016 0.647342
42185 1 101.595 14.1273 0.396956
42186 1 103.627 12.6942 2.88572
42187 1 106.472 13.2759 0.89768
42188 1 105.253 14.5671 2.63803
42189 1 108.91 12.85 1.14789
42190 1 107.691 14.1413 2.88832
42191 1 111.347 12.4239 1.39783
42192 1 112.968 14.2994 1.15154
42193 1 110.534 14.7239 0.900871
42194 1 113.783 11.9966 1.64734
42195 1 115.392 13.8756 1.40176
42196 1 117.782 13.4589 1.64745
42197 1 121.678 12.0079 0.525756
42198 1 120.051 12.9588 1.92386
42199 1 121.863 14.3189 1.83032
240 1 0.929228 14.9777 0.544057
241 1 0.969122 17.0853 1.84643
242 1 2.98486 15.687 1.83425
243 1 5.02448 16.4261 0.599981
245 1 7.05557 14.9974 0.600906
246 1 7.05622 17.1547 1.84515
247 1 9.08823 15.7251 1.84763
248 1 11.121 16.4526 0.606913
249 1 13.1533 15.0234 0.609657
250 1 13.1534 17.1801 1.85335
251 1 15.1857 15.7508 1.85613
252 1 17.2181 16.4782 0.615263
253 1 19.2505 15.049 0.618054
254 1 19.2505 17.2057 1.86172
255 1 21.2829 15.7764 1.86451
256 1 23.3153 16.5038 0.623641
257 1 25.3477 15.0745 0.626434
258 1 25.3477 17.2312 1.8701
259 1 27.38 15.802 1.87289
260 1 29.4124 16.5294 0.632019
261 1 31.4448 15.1001 0.634812
262 1 31.4448 17.2568 1.87848
263 1 33.4772 15.8275 1.88127
264 1 37.542 15.1257 0.643191
265 1 35.5096 16.555 0.640398
266 1 37.542 17.2824 1.88686
267 1 39.5744 15.8531 1.88965
268 1 43.6391 15.1513 0.651571
269 1 41.6067 16.5805 0.648778
270 1 43.6391 17.308 1.89524
271 1 45.6715 15.8787 1.89803
272 1 49.7363 15.1768 0.65995
273 1 47.7039 16.6061 0.657157
274 1 49.7363 17.3335 1.90362
275 1 51.7687 15.9043 1.90641
276 1 53.8011 16.6317 0.665536
277 1 55.8334 15.2024 0.668328
278 1 55.8334 17.3591 1.912
279 1 57.8658 15.9298 1.91479
280 1 61.9306 15.228 0.676704
281 1 59.8982 16.6573 0.673917
282 1 61.9306 17.3847 1.92038
283 1 63.963 15.9554 1.92316
284 1 65.9954 16.6829 0.682371
285 1 68.0277 15.2536 0.685024
286 1 68.0281 17.4104 1.92888
287 1 70.0601 15.9808 1.93136
42200 1 72.0942 16.7093 0.693053
42201 1 74.1193 15.2765 0.695473
42202 1 74.1315 17.4485 1.94226
42203 1 76.1472 16.0502 1.93008
42204 1 78.8598 16.7835 0.595383
42243 1 80.3607 17.8247 2.37604
42205 1 81.6053 16.5406 0.613694
42206 1 82.8772 17.3986 2.62078
42207 1 81.2867 15.5694 2.84474
42208 1 84.0901 16.1018 0.87931
42209 1 85.329 16.9667 2.87196
42210 1 86.5474 15.6753 1.13151
42211 1 88.9921 15.2487 1.38286
42212 1 88.1835 17.5456 0.884633
42214 1 90.6216 17.1207 1.13538
42215 1 93.0599 16.6953 1.38594
42216 1 95.4984 16.2697 1.63641
42217 1 97.9369 15.8441 1.88684
42218 1 99.5626 17.717 1.63925
42219 1 100.375 15.4185 2.13726
42220 1 102.814 14.9928 2.38766
42221 1 103.22 16.0002 0.149376
42222 1 102.001 17.2914 1.88967
42223 1 105.659 15.5746 0.399816
42224 1 107.285 17.4473 0.152194
42225 1 104.44 16.8657 2.1401
42226 1 106.878 16.4402 2.39057
42227 1 108.097 15.1491 0.6503
42228 1 109.724 17.0215 0.402696
42229 1 109.317 16.0148 2.64113
42230 1 112.165 16.5954 0.653367
42231 1 111.755 15.5899 2.89188
42232 1 113.391 17.4602 2.645
42233 1 114.609 16.1688 0.904553
42234 1 115.848 17.0337 2.8972
42235 1 117.061 15.7369 1.15573
42236 1 118.651 17.5661 0.931769
42237 1 121.707 16.4157 0.654981
42238 1 119.577 15.3108 1.40047
288 1 0.977611 19.2859 0.590168
244 1 2.99779 17.8559 0.60318
289 1 5.02534 18.5867 1.84299
290 1 2.98527 20.0208 1.84244
291 1 5.02354 20.7393 0.598295
292 1 7.05681 19.3112 0.601184
293 1 9.08891 17.8819 0.604252
294 1 11.121 18.6094 1.85062
295 1 9.08863 20.0387 1.84783
296 1 11.1209 20.766 0.606845
297 1 13.1534 19.3368 0.609686
298 1 15.1857 17.9075 0.612478
299 1 15.1857 20.0642 1.85614
300 1 17.2181 18.6349 1.85893
301 1 17.2181 20.7916 0.615259
302 1 19.2505 19.3623 0.618055
303 1 21.2829 17.9331 0.620848
304 1 21.2829 20.0898 1.86452
305 1 23.3153 18.6605 1.86731
307 1 25.3477 19.3879 0.626434
308 1 27.38 17.9586 0.629227
309 1 27.38 20.1153 1.87289
310 1 29.4124 18.6861 1.87569
311 1 31.4448 19.4135 0.634812
312 1 33.4772 17.9842 0.637605
313 1 33.4772 20.1409 1.88127
314 1 35.5096 18.7116 1.88407
315 1 37.542 19.4391 0.643191
316 1 39.5744 18.0098 0.645985
317 1 39.5744 20.1665 1.88965
318 1 41.6067 18.7372 1.89245
319 1 43.6391 19.4646 0.651571
320 1 45.6715 18.0354 0.654364
321 1 45.6715 20.1921 1.89803
322 1 47.7039 18.7628 1.90082
323 1 49.7363 19.4902 0.65995
324 1 51.7687 18.0609 0.662743
325 1 51.7687 20.2176 1.90641
326 1 53.8011 18.7884 1.9092
327 1 55.8334 19.5158 0.668328
328 1 57.8658 18.0865 0.671123
329 1 57.8658 20.2432 1.91479
330 1 59.8982 18.8139 1.91758
331 1 61.9306 19.5414 0.676704
332 1 63.963 18.1121 0.679523
333 1 63.963 20.2688 1.92316
334 1 65.9954 18.8395 1.926
335 1 68.0277 19.5668 0.685016
336 1 70.0607 18.1378 0.688102
337 1 70.0595 20.2943 1.93166
42239 1 72.0928 18.8663 1.93455
42240 1 74.131 19.5848 0.690402
42241 1 76.1917 18.1391 0.670431
42242 1 76.1387 20.3197 1.94268
42244 1 78.075 18.8166 1.94619
42245 1 79.8872 20.1767 1.85265
42246 1 80.8191 18.7755 0.151497
42247 1 83.306 18.3906 0.38261
42248 1 82.1564 19.6766 2.12906
42249 1 85.7453 17.9689 0.633894
42250 1 84.9349 20.2715 0.139612
42251 1 84.5466 19.2598 2.37475
42252 1 87.3707 19.8459 0.388538
42253 1 86.9702 18.8361 2.62497
42254 1 88.5909 20.7116 2.37868
42255 1 89.4041 18.4116 2.87564
42256 1 89.8086 19.42 0.638092
42257 1 92.247 18.9942 0.888187
42258 1 91.0283 20.2855 2.62862
42259 1 94.6855 18.5684 1.13848
42260 1 93.4665 19.8596 2.87883
42261 1 97.1241 18.1427 1.38886
42262 1 96.3111 20.4413 0.890795
42263 1 101.188 19.5899 1.39163
42264 1 98.7497 20.0156 1.14121
42265 1 103.627 19.1642 1.64205
42266 1 106.066 18.7385 1.89248
42267 1 107.691 20.6114 1.64466
42268 1 108.505 18.3127 2.14298
42269 1 110.129 20.1856 1.89475
42270 1 110.946 17.8868 2.39365
42271 1 111.347 18.8939 0.154164
42272 1 112.567 19.7597 2.14431
42273 1 116.218 18.0361 0.654626
42274 1 113.783 18.4666 0.40367
42275 1 115.392 20.3457 0.158096
42276 1 115.003 19.334 2.39323
42277 1 117.782 19.929 0.403784
42278 1 117.433 18.9234 2.63734
42279 1 120.051 19.4288 0.680195
42280 1 121.882 18.4756 1.85337
42281 1 119.801 18.5261 2.92577
42318 1 121.863 20.789 0.586654
338 1 0.924652 21.4664 1.86241
339 1 0.969122 23.5553 0.602768
340 1 2.98486 22.1571 0.590579
341 1 5.02217 22.8963 1.83979
342 1 7.05567 21.4678 1.84474
343 1 7.05622 23.6248 0.601483
344 1 9.08823 22.1952 0.603964
345 1 11.1209 22.9227 1.85047
346 1 13.1533 21.4934 1.85332
347 1 13.1534 23.6501 0.60968
348 1 15.1857 22.2208 0.61246
349 1 17.2181 22.9483 1.85893
350 1 19.2505 21.519 1.86172
351 1 19.2505 23.6757 0.618055
306 1 23.3153 20.8172 0.623641
352 1 21.2829 22.2464 0.620847
353 1 23.3153 22.9738 1.86731
354 1 25.3477 21.5446 1.8701
355 1 25.3477 23.7013 0.626434
356 1 29.4124 20.8427 0.632019
357 1 27.38 22.272 0.629226
358 1 29.4124 22.9994 1.87569
359 1 31.4448 21.5702 1.87848
360 1 31.4448 23.7268 0.634812
361 1 33.4772 22.2976 0.637605
362 1 35.5096 20.8683 0.640398
363 1 35.5096 23.025 1.88407
364 1 37.542 21.5957 1.88686
365 1 37.542 23.7524 0.643191
366 1 39.5744 22.3232 0.645985
367 1 41.6067 20.8939 0.648778
368 1 41.6067 23.0506 1.89245
369 1 43.6391 21.6213 1.89524
371 1 45.6715 22.3487 0.654364
372 1 47.7039 20.9195 0.657157
373 1 47.7039 23.0762 1.90082
374 1 49.7363 21.6469 1.90362
376 1 51.7687 22.3743 0.662743
377 1 53.8011 20.945 0.665535
378 1 53.8011 23.1017 1.9092
379 1 55.8334 21.6725 1.912
380 1 57.8658 22.3999 0.671121
381 1 59.8982 20.9706 0.673911
382 1 59.8982 23.1273 1.91758
383 1 61.9306 21.698 1.92037
384 1 63.963 22.4255 0.679496
385 1 65.9953 20.9962 0.682223
386 1 65.9953 23.1529 1.92593
387 1 68.0274 21.7236 1.92859
388 1 70.0601 22.4508 0.687693
42282 1 72.091 21.0188 0.689852
42283 1 72.0918 23.1794 1.93286
42284 1 74.1185 21.7496 1.92966
42285 1 76.1472 22.5203 0.686408
42286 1 78.0565 21.1299 0.679472
42287 1 78.231 23.1898 1.87786
42288 1 81.2867 22.0394 1.60107
42289 1 85.329 23.4367 1.62829
42290 1 83.7197 21.5694 1.87822
42291 1 86.1548 21.1389 2.12917
42292 1 88.9921 21.7187 0.139189
42293 1 87.7731 23.0101 1.87948
42294 1 91.4329 21.2928 0.389866
42295 1 90.2137 22.5841 2.13015
42296 1 93.8722 20.867 0.640359
42297 1 93.0599 23.1654 0.142275
42298 1 92.653 22.1582 2.38065
42299 1 95.0918 21.7325 2.63109
42300 1 95.4984 22.7398 0.392744
42301 1 97.9369 22.3142 0.643175
42302 1 96.7177 23.6053 2.38347
42303 1 97.5304 21.3068 2.88151
42304 1 100.375 21.8885 0.893589
42305 1 99.1562 23.1797 2.63389
42306 1 102.814 21.4628 1.14399
42307 1 101.595 22.754 2.88429
42342 1 102.001 23.7614 0.646001
42308 1 105.253 21.0371 1.39436
42309 1 106.878 22.9102 1.1469
42310 1 104.44 23.3358 0.896432
42311 1 109.317 22.4848 1.39746
42312 1 111.755 22.0599 1.64821
42313 1 115.848 23.5037 1.65353
42314 1 114.193 21.6366 1.89895
42315 1 119.119 20.8301 2.38135
42316 1 116.632 21.215 2.15023
42317 1 118.333 23.065 1.91915
42319 1 119.577 21.7809 0.156805
42320 1 121.078 22.822 1.93746
389 1 0.971225 25.7706 1.85097
390 1 2.99702 24.329 1.83737
391 1 5.02534 25.0567 0.599324
392 1 2.98527 26.4908 0.598775
393 1 7.05668 25.7815 1.84551
394 1 9.08858 24.3519 1.84782
395 1 11.121 25.0794 0.606953
396 1 9.08863 26.5087 0.60416
397 1 13.1534 25.8068 1.85337
398 1 15.1857 24.3775 1.85614
399 1 15.1857 26.5342 0.612472
400 1 17.2181 25.105 0.615265
401 1 19.2505 25.8324 1.86172
402 1 21.2829 24.4031 1.86452
403 1 21.2829 26.5598 0.620848
404 1 23.3153 25.1305 0.623641
405 1 25.3477 25.8579 1.8701
406 1 27.38 24.4287 1.87289
407 1 27.38 26.5854 0.629226
408 1 29.4124 25.1561 0.632019
409 1 31.4448 25.8835 1.87848
410 1 33.4772 24.4543 1.88127
411 1 33.4772 26.6109 0.637605
412 1 35.5096 25.1817 0.640398
413 1 37.542 25.9091 1.88686
414 1 39.5744 24.4798 1.88965
415 1 39.5744 26.6365 0.645985
370 1 43.6391 23.778 0.651571
416 1 41.6067 25.2073 0.648778
417 1 43.6391 25.9347 1.89524
418 1 45.6715 24.5054 1.89803
419 1 45.6715 26.6621 0.654364
375 1 49.7363 23.8036 0.65995
420 1 47.7039 25.2328 0.657157
421 1 49.7363 25.9603 1.90362
422 1 51.7687 24.531 1.90641
423 1 51.7687 26.6877 0.662743
424 1 55.8334 23.8291 0.668329
425 1 53.8011 25.2584 0.665536
426 1 55.8334 25.9858 1.912
427 1 57.8658 24.5566 1.91479
428 1 57.8658 26.7132 0.671121
429 1 61.9306 23.8547 0.676716
430 1 59.8982 25.284 0.673917
431 1 61.9306 26.0114 1.92038
432 1 63.963 24.5822 1.92319
433 1 63.963 26.7388 0.67949
434 1 65.9954 25.3096 0.682331
435 1 68.0281 23.8804 0.685212
436 1 68.0278 26.037 1.92892
437 1 70.0608 24.6082 1.93194
42321 1 72.0928 25.3363 0.690881
42322 1 74.1315 23.9185 0.698597
42323 1 74.1236 26.0597 1.94062
42324 1 76.1871 24.6279 1.98879
42325 1 78.075 25.2866 0.702522
42326 1 79.8872 26.6467 0.608981
42327 1 80.3607 24.2947 1.13237
42328 1 82.8772 23.8687 1.37712
42329 1 82.1564 26.1466 0.885392
42330 1 84.5466 25.7299 1.13108
42331 1 86.9702 25.3061 1.3813
42332 1 89.4041 24.8816 1.63197
42333 1 91.8412 24.4564 1.88254
42334 1 94.2793 24.0309 2.13303
42335 1 93.4665 26.3297 1.63516
42336 1 97.1241 24.6128 0.145188
42337 1 98.3434 25.4783 2.13589
42338 1 95.9049 25.904 1.8855
42339 1 99.5626 24.1871 0.395587
42340 1 101.188 26.06 0.147962
42341 1 100.782 25.0526 2.38629
42343 1 103.627 25.6343 0.398381
42344 1 103.22 24.6269 2.63671
42345 1 106.066 25.2086 0.648817
42346 1 107.285 26.074 2.63953
42347 1 104.846 26.4998 2.38909
42348 1 105.659 24.2013 2.88715
42349 1 108.505 24.7828 0.89931
42350 1 110.129 26.6556 0.651084
42351 1 109.724 25.6482 2.89003
42352 1 110.946 24.3568 1.14999
42353 1 112.567 26.2297 0.900638
42354 1 113.391 23.9303 1.40133
42355 1 115.003 25.8041 1.14956
42356 1 117.433 25.3934 1.39368
42357 1 121.882 24.9457 0.609704
42358 1 119.801 24.9961 1.68211
439 1 0.924652 27.9364 0.618746
440 1 5.02359 27.2105 1.84246
441 1 2.99271 28.6426 1.83589
442 1 5.02217 29.3663 0.596123
443 1 7.05567 27.9378 0.601074
444 1 11.121 27.2361 1.85057
445 1 9.08852 28.6653 1.84759
446 1 11.1209 29.3927 0.606805
447 1 13.1533 27.9635 0.609653
448 1 15.1857 28.6909 1.85613
449 1 17.2181 27.2616 1.85893
450 1 17.2181 29.4183 0.615259
451 1 19.2505 27.9891 0.618054
452 1 21.2829 28.7165 1.86451
453 1 23.3153 27.2872 1.86731
454 1 23.3153 29.4439 0.623641
455 1 25.3477 28.0146 0.626434
456 1 27.38 28.742 1.87289
457 1 29.4124 27.3128 1.87569
458 1 29.4124 29.4695 0.632019
459 1 31.4448 28.0402 0.634812
460 1 33.4772 28.7676 1.88127
461 1 35.5096 27.3384 1.88407
462 1 37.542 28.0658 0.643191
463 1 35.5096 29.495 0.640398
464 1 39.5744 28.7932 1.88965
465 1 41.6067 27.3639 1.89245
466 1 41.6067 29.5206 0.648778
467 1 43.6391 28.0914 0.651571
468 1 45.6715 28.8188 1.89803
469 1 47.7039 27.3895 1.90082
470 1 47.7039 29.5462 0.657157
471 1 49.7363 28.1169 0.65995
472 1 51.7687 28.8444 1.90641
473 1 53.8011 27.4151 1.9092
474 1 53.8011 29.5718 0.665535
475 1 55.8334 28.1425 0.668328
476 1 57.8658 28.8699 1.91479
477 1 59.8982 27.4407 1.91758
478 1 59.8982 29.5973 0.673913
479 1 61.9306 28.1681 0.676698
480 1 63.9629 28.8955 1.92314
481 1 65.9953 27.4662 1.92594
482 1 65.9953 29.623 0.682263
483 1 68.0274 28.1936 0.684924
438 1 70.0595 26.7643 0.687992
484 1 70.0596 28.9208 1.931
42359 1 72.0927 27.4918 1.93406
42360 1 74.1185 28.2197 0.685996
42361 1 72.0918 29.6495 0.689195
42362 1 76.1387 26.7897 0.699008
42363 1 76.1451 28.9317 1.92554
42364 1 78.2601 27.5977 2.00709
42365 1 78.231 29.6599 0.634195
42407 1 80.137 29.7062 2.0944
42366 1 81.2867 28.5095 0.357407
42367 1 80.8191 27.4022 2.63883
42368 1 82.5055 29.3089 2.38283
42369 1 83.306 27.0173 2.86994
42370 1 86.1548 27.609 0.885506
42371 1 83.7197 28.0395 0.63455
42372 1 84.9349 28.8982 2.62695
42373 1 88.5909 27.1817 1.13501
42374 1 87.7731 29.4802 0.635809
42375 1 87.3707 28.4726 2.87587
42376 1 91.0283 26.7555 1.38495
42377 1 90.2137 29.0541 0.88648
42378 1 92.653 28.6283 1.13698
42379 1 95.0918 28.2025 1.38742
42380 1 97.5304 27.7768 1.63784
42381 1 99.9691 27.3511 1.88826
42382 1 99.1562 29.6497 1.39022
42383 1 102.408 26.9255 2.13867
42384 1 101.595 29.224 1.64062
42385 1 104.033 28.7983 1.89101
42386 1 105.253 27.5072 0.150692
42387 1 106.472 28.3726 2.14135
42388 1 107.691 27.0814 0.400989
42389 1 109.317 28.9549 0.153794
42390 1 108.91 27.9468 2.39156
42391 1 111.755 28.53 0.404543
42392 1 111.347 27.5206 2.6415
42393 1 112.968 29.3962 2.39521
42394 1 114.193 28.1067 0.655282
42395 1 115.392 28.9724 2.64543
42396 1 113.783 27.0933 2.891
42397 1 119.119 27.3001 1.13768
42398 1 116.632 27.685 0.906566
42399 1 118.333 29.535 0.675482
42400 1 117.782 28.5557 2.89112
42401 1 121.678 27.1046 1.76942
42402 1 121.078 29.292 0.693793
485 1 0.929228 30.0744 1.78772
486 1 0.971225 32.2406 0.607302
487 1 2.99702 30.7991 0.593704
488 1 5.02448 31.5229 1.84365
489 1 7.05557 30.0941 1.84457
490 1 7.05668 32.2515 0.60184
491 1 9.08858 30.822 0.604152
492 1 11.121 31.5494 1.85058
493 1 13.1533 30.1201 1.85332
494 1 13.1534 32.2768 0.609704
495 1 15.1857 30.8476 0.612472
496 1 17.2181 31.575 1.85893
497 1 19.2505 30.1457 1.86172
498 1 19.2505 32.3024 0.618056
499 1 21.2829 30.8732 0.620848
500 1 23.3153 31.6006 1.86731
501 1 25.3477 30.1713 1.8701
502 1 25.3477 32.328 0.626434
503 1 27.38 30.8987 0.629226
504 1 29.4124 31.6261 1.87569
505 1 31.4448 30.1969 1.87848
506 1 31.4448 32.3536 0.634812
507 1 33.4772 30.9243 0.637605
508 1 35.5096 31.6517 1.88407
509 1 37.542 30.2225 1.88686
510 1 37.542 32.3791 0.643191
511 1 39.5744 30.9499 0.645985
512 1 41.6067 31.6773 1.89245
513 1 43.6391 30.248 1.89524
514 1 43.6391 32.4047 0.651571
515 1 45.6715 30.9755 0.654364
516 1 47.7039 31.7029 1.90082
517 1 49.7363 30.2736 1.90362
518 1 49.7363 32.4303 0.65995
519 1 51.7687 31.001 0.662743
520 1 53.8011 31.7285 1.9092
521 1 55.8334 30.2992 1.912
522 1 55.8334 32.4559 0.668329
523 1 57.8658 31.0266 0.671123
524 1 61.9306 30.3248 1.92037
525 1 59.8982 31.754 1.91758
526 1 61.9306 32.4814 0.676714
527 1 63.963 31.0522 0.679519
528 1 65.9954 31.7796 1.92604
529 1 68.0278 32.507 0.685254
530 1 68.0277 30.3504 1.92869
531 1 70.0608 31.0782 0.68827
42403 1 72.0942 31.806 1.93672
42404 1 74.1193 30.3733 1.93914
42405 1 74.1236 32.5298 0.696951
42406 1 76.1871 31.0979 0.745119
42408 1 78.8598 31.8803 1.83905
42409 1 82.8772 30.3387 0.133448
42410 1 81.6053 31.6373 1.85736
42411 1 85.329 29.9068 0.384623
42412 1 84.0901 31.1986 2.12298
42413 1 86.9702 31.7762 0.137631
42414 1 89.4041 31.3517 0.388305
42415 1 86.5474 30.772 2.37518
42416 1 88.9921 30.3455 2.62652
42417 1 88.1835 32.6424 2.1283
42418 1 91.8412 30.9265 0.638876
42419 1 90.6216 32.2175 2.37905
42420 1 91.4329 29.9195 2.8772
42421 1 94.2793 30.501 0.88936
42422 1 93.0599 31.7921 2.62961
42423 1 96.7177 30.0754 1.1398
42424 1 98.3434 31.9483 0.89222
42425 1 95.9049 32.374 0.641834
42426 1 95.4984 31.3665 2.88008
42427 1 100.782 31.5226 1.14263
42428 1 103.22 31.097 1.39304